#LAMMPS data file
3656 atoms
2 atom types
-125.2250000000 125.2250000000 xlo xhi
-14.9050426500 14.9050426500 ylo yhi
-3.6150000000 3.6150000000 zlo zhi
0.0 0.0 0.0 xy xz yz

Atoms # atomic

1 2 0.685452 13.251427 -3.165219
2 2 -0.326211 7.688787 -1.357718
3 2 0.822932 9.337484 -3.165219
4 2 0.840387 11.224336 -1.357719
5 2 0.685452 13.251427 0.449781
6 1 2.615318 11.668288 -3.165219
7 1 2.324235 13.502344 -1.357719
8 1 4.011206 13.924086 -3.165219
9 2 0.880123 3.725774 -3.165219
10 2 0.865096 5.554808 -1.357719
11 2 -0.326211 7.688787 2.257282
12 1 2.388427 6.008709 -3.165219
13 1 2.005334 7.802183 -1.357719
14 2 0.822932 9.337484 0.449781
15 2 0.840387 11.224336 2.257281
16 1 3.597718 8.267929 -3.165219
17 1 3.046818 9.998356 -1.357719
18 1 2.615318 11.668288 0.449781
19 1 2.324235 13.502344 2.257281
20 1 4.866875 10.433796 -3.165219
21 1 4.436514 12.154775 -1.357719
22 1 4.011206 13.924086 0.449781
23 1 6.207944 12.607795 -3.165219
24 1 5.775982 14.354574 -1.357719
25 2 0.883639 -1.899622 -3.165219
26 2 -0.303476 0.242763 0.449782
27 1 2.030730 0.335969 -3.165219
28 2 0.825991 1.870747 -1.357719
29 2 0.880123 3.725774 0.449781
30 2 0.865096 5.554808 2.257281
31 1 3.118541 2.495321 -3.165219
32 1 2.759980 4.116840 -1.357719
33 1 2.388427 6.008709 0.449781
34 1 2.005334 7.802183 2.257281
35 1 4.513598 4.660480 -3.165219
36 1 4.082060 6.412653 -1.357719
37 1 3.597718 8.267929 0.449781
38 1 3.046818 9.998356 2.257281
39 1 5.782073 6.905711 -3.165219
40 1 5.310878 8.675408 -1.357719
41 1 4.866875 10.433796 0.449781
42 1 4.436514 12.154775 2.257281
43 1 7.074863 9.110078 -3.165219
44 1 6.641937 10.858095 -1.357719
45 1 6.207944 12.607795 0.449781
46 1 5.775982 14.354574 2.257281
47 1 8.409329 11.293730 -3.165219
48 1 7.978847 13.039907 -1.357719
49 1 9.752590 13.471909 -3.165219
50 2 -0.302128 -7.221261 -1.357718
51 2 0.784192 -5.577243 -3.165219
52 2 0.905150 -3.729625 -1.357719
53 2 0.883639 -1.899622 0.449781
54 2 -0.303476 0.242763 -3.165218
55 1 2.794411 -3.316233 -3.165219
56 1 2.415758 -1.450286 -1.357719
57 1 2.030730 0.335969 0.449781
58 2 0.825991 1.870747 2.257281
59 1 4.122412 -1.036226 -3.165219
60 1 3.645213 0.792769 -1.357719
61 1 3.118541 2.495321 0.449781
62 1 2.759980 4.116840 2.257281
63 1 5.380820 1.201653 -3.165219
64 1 4.965952 2.936240 -1.357719
65 1 4.513598 4.660480 0.449781
66 1 4.082060 6.412653 2.257281
67 1 6.715988 3.388915 -3.165219
68 1 6.263768 5.139585 -1.357719
69 1 5.782073 6.905711 0.449781
70 1 5.310878 8.675408 2.257281
71 1 7.996267 5.603978 -3.165219
72 1 7.528249 7.359750 -1.357719
73 1 7.074863 9.110078 0.449781
74 1 6.641937 10.858095 2.257281
75 1 9.289149 7.802471 -3.165219
76 1 8.845370 9.547855 -1.357719
77 1 8.409329 11.293730 0.449781
78 1 7.978847 13.039907 2.257281
79 1 10.613568 9.985697 -3.165219
80 1 10.179252 11.729271 -1.357719
81 1 9.752590 13.471909 0.449781
82 1 11.949014 12.165203 -3.165219
83 1 11.521809 13.908530 -1.357719
84 1 13.284399 14.348636 -3.165219
85 2 0.993300 -11.008447 -3.165219
86 2 0.891716 -9.320219 -1.357719
87 2 -0.302128 -7.221261 2.257282
88 1 2.439601 -8.797840 -3.165219
89 1 2.035482 -7.045925 -1.357719
90 2 0.784192 -5.577243 0.449781
91 2 0.905150 -3.729625 2.257281
92 1 3.681368 -6.594021 -3.165219
93 1 3.170528 -4.915599 -1.357719
94 1 2.794411 -3.316233 0.449781
95 1 2.415758 -1.450286 2.257281
96 1 5.018558 -4.475146 -3.165219
97 1 4.561929 -2.767565 -1.357719
98 1 4.122412 -1.036226 0.449781
99 1 3.645213 0.792769 2.257281
100 1 6.319316 -2.292268 -3.165219
101 1 5.840850 -0.544335 -1.357719
102 1 5.380820 1.201653 0.449781
103 1 4.965952 2.936240 2.257281
104 1 7.597887 -0.092830 -3.165219
105 1 7.154402 1.644188 -1.357719
106 1 6.715988 3.388915 0.449781
107 1 6.263768 5.139585 2.257281
108 1 8.910795 2.095397 -3.165219
109 1 8.459475 3.845734 -1.357719
110 1 7.996267 5.603978 0.449781
111 1 7.528249 7.359750 2.257281
112 1 10.201995 4.298264 -3.165219
113 1 9.743082 6.052369 -1.357719
114 1 9.289149 7.802471 0.449781
115 1 8.845370 9.547855 2.257281
116 1 11.499280 6.493281 -3.165219
117 1 11.053501 8.240795 -1.357719
118 1 10.613568 9.985697 0.449781
119 1 10.179252 11.729271 2.257281
120 1 12.817834 8.677235 -3.165219
121 1 12.381012 10.422003 -1.357719
122 1 11.949014 12.165203 0.449781
123 1 11.521809 13.908530 2.257281
124 1 14.146783 10.857951 -3.165219
125 1 13.714970 12.602710 -1.357719
126 1 13.284399 14.348636 0.449781
127 1 15.476373 13.041522 -3.165219
128 1 0.337190 -14.719988 -1.357719
129 1 1.923220 -14.373432 -3.165219
130 1 1.387048 -12.592623 -1.357719
131 2 0.993300 -11.008447 0.449781
132 2 0.891716 -9.320219 2.257281
133 1 3.241861 -12.290997 -3.165219
134 1 2.919103 -10.596181 -1.357719
135 1 2.439601 -8.797840 0.449781
136 1 2.035482 -7.045925 2.257281
137 1 4.615155 -10.148064 -3.165219
138 1 4.169674 -8.385204 -1.357719
139 1 3.681368 -6.594021 0.449781
140 1 3.170528 -4.915599 2.257281
141 1 5.883382 -7.950258 -3.165219
142 1 5.435874 -6.197233 -1.357719
143 1 5.018558 -4.475146 0.449781
144 1 4.561929 -2.767565 2.257281
145 1 7.202474 -5.783720 -3.165219
146 1 6.770837 -4.034710 -1.357719
147 1 6.319316 -2.292268 0.449781
148 1 5.840850 -0.544335 2.257281
149 1 8.511217 -3.596924 -3.165219
150 1 8.057204 -1.838948 -1.357719
151 1 7.597887 -0.092830 0.449781
152 1 7.154402 1.644188 2.257281
153 1 9.802490 -1.401659 -3.165219
154 1 9.356676 0.348995 -1.357719
155 1 8.910795 2.095397 0.449781
156 1 8.459475 3.845734 2.257281
157 1 11.106489 0.789086 -3.165219
158 1 10.657857 2.543417 -1.357719
159 1 10.201995 4.298264 0.449781
160 1 9.743082 6.052369 2.257281
161 1 12.402845 2.986222 -3.165220
162 1 11.950445 4.741682 -1.357719
163 1 11.499280 6.493281 0.449781
164 1 11.053501 8.240795 2.257281
165 1 13.703621 5.179183 -3.165219
166 1 13.258859 6.929976 -1.357719
167 1 12.817834 8.677235 0.449781
168 1 12.381012 10.422003 2.257281
169 1 15.019056 7.364549 -3.165219
170 1 14.581413 9.112336 -1.357719
171 1 14.146783 10.857951 0.449781
172 1 13.714970 12.602710 2.257281
173 1 16.343397 9.547113 -3.165219
174 1 15.909497 11.294416 -1.357719
175 1 15.476373 13.041522 0.449781
176 1 17.668989 11.731539 -3.165219
177 1 17.234425 13.480756 -1.357719
178 1 18.990379 13.919921 -3.165220
179 1 0.337189 -14.719988 2.257281
180 1 1.923220 -14.373432 0.449781
181 1 1.387048 -12.592623 2.257281
182 1 3.613046 -14.069984 -1.357719
183 1 3.241861 -12.290997 0.449781
184 1 2.919103 -10.596181 2.257281
185 1 5.380367 -13.701338 -3.165219
186 1 5.024580 -11.937846 -1.357719
187 1 4.615155 -10.148064 0.449781
188 1 4.169674 -8.385204 2.257281
189 1 6.753745 -11.516813 -3.165219
190 1 6.332074 -9.735073 -1.357719
191 1 5.883382 -7.950258 0.449781
192 1 5.435874 -6.197233 2.257281
193 1 8.058728 -9.309411 -3.165219
194 1 7.626561 -7.540171 -1.357719
195 1 7.202474 -5.783720 0.449781
196 1 6.770837 -4.034710 2.257281
197 1 9.376521 -7.119348 -3.165219
198 1 8.949142 -5.357654 -1.357719
199 1 8.511217 -3.596924 0.449781
200 1 8.057204 -1.838948 2.257281
201 1 10.690017 -4.924764 -3.165219
202 1 10.249005 -3.160835 -1.357719
203 1 9.802490 -1.401659 0.449781
204 1 9.356676 0.348995 2.257281
205 1 11.991451 -2.726374 -3.165219
206 1 11.549913 -0.966929 -1.357719
207 1 11.106489 0.789086 0.449781
208 1 10.657857 2.543417 2.257281
209 1 13.295923 -0.530750 -3.165219
210 1 12.851822 1.228308 -1.357720
211 1 12.402845 2.986222 0.449780
212 1 11.950445 4.741682 2.257281
213 1 14.597270 1.666275 -3.165220
214 1 14.150626 3.424324 -1.357720
215 1 13.703621 5.179183 0.449781
216 1 13.258859 6.929976 2.257281
217 1 15.901820 3.859766 -3.165220
218 1 15.459379 5.613794 -1.357720
219 1 15.019056 7.364549 0.449781
220 1 14.581413 9.112336 2.257281
221 1 17.216332 6.047463 -3.165220
222 1 16.778924 7.798373 -1.357720
223 1 16.343397 9.547113 0.449781
224 1 15.909497 11.294416 2.257281
225 1 18.537898 8.232475 -3.165220
226 1 18.103215 9.982369 -1.357720
227 1 17.668989 11.731539 0.449781
228 1 17.234425 13.480756 2.257281
229 1 19.860923 10.418402 -3.165220
230 1 19.425994 12.169125 -1.357720
231 1 18.990379 13.919921 0.449780
232 1 21.181337 12.607022 -3.165220
233 1 20.745000 14.358939 -1.357720
234 1 3.613046 -14.069984 2.257281
235 1 5.380367 -13.701338 0.449781
236 1 5.024580 -11.937846 2.257281
237 1 7.559521 14.781892 -3.165219
238 1 7.157999 -13.284297 -1.357719
239 1 6.753745 -11.516813 0.449781
240 1 6.332074 -9.735073 2.257281
241 1 8.915228 -12.844758 -3.165219
242 1 8.490572 -11.082595 -1.357719
243 1 8.058728 -9.309411 0.449781
244 1 7.626561 -7.540171 2.257281
245 1 10.234616 -10.643559 -3.165219
246 1 9.803095 -8.881545 -1.357719
247 1 9.376521 -7.119348 0.449781
248 1 8.949142 -5.357654 2.257281
249 1 11.553658 -8.447561 -3.165219
250 1 11.123493 -6.687729 -1.357719
251 1 10.690017 -4.924764 0.449781
252 1 10.249005 -3.160835 2.257281
253 1 12.869228 -6.250185 -3.165219
254 1 12.431727 -4.488496 -1.357719
255 1 11.991451 -2.726374 0.449781
256 1 11.549913 -0.966929 2.257281
257 1 14.176654 -4.050739 -3.165219
258 1 13.736869 -2.290553 -1.357719
259 1 13.295923 -0.530750 0.449781
260 1 12.851822 1.228308 2.257280
261 1 15.483404 -1.852832 -3.165220
262 1 15.041582 -0.093255 -1.357720
263 1 14.597270 1.666275 0.449780
264 1 14.150626 3.424324 2.257280
265 1 16.788643 0.344568 -3.165220
266 1 16.345338 2.102950 -1.357720
267 1 15.901820 3.859766 0.449780
268 1 15.459379 5.613794 2.257280
269 1 18.096339 2.538837 -3.165220
270 1 17.655570 4.294188 -1.357720
271 1 17.216332 6.047463 0.449780
272 1 16.778924 7.798373 2.257280
273 1 19.410886 4.728576 -3.165220
274 1 18.973672 6.481283 -1.357720
275 1 18.537898 8.232475 0.449780
276 1 18.103215 9.982369 2.257280
277 1 20.730821 6.915832 -3.165220
278 1 20.295654 8.667416 -1.357720
279 1 19.860923 10.418402 0.449780
280 1 19.425994 12.169125 2.257280
281 1 22.052180 9.103327 -3.165220
282 1 21.616977 10.855183 -1.357720
283 1 21.181337 12.607022 0.449780
284 1 20.745000 14.358939 2.257280
285 1 23.371869 11.292586 -3.165220
286 1 22.935595 13.045186 -1.357720
287 1 24.689118 13.483608 -3.165220
288 1 7.559521 14.781892 0.449781
289 1 7.157999 -13.284297 2.257281
290 1 9.333940 -14.595017 -1.357719
291 1 8.915228 -12.844758 0.449781
292 1 8.490572 -11.082595 2.257281
293 1 11.095968 -14.154812 -3.165219
294 1 10.667129 -12.402253 -1.357719
295 1 10.234616 -10.643559 0.449781
296 1 9.803095 -8.881545 2.257281
297 1 12.419156 -11.959894 -3.165219
298 1 11.985258 -10.204692 -1.357719
299 1 11.553658 -8.447561 0.449781
300 1 11.123493 -6.687729 2.257281
301 1 13.737973 -9.764677 -3.165219
302 1 13.304008 -8.008968 -1.357719
303 1 12.869228 -6.250185 0.449781
304 1 12.431727 -4.488496 2.257281
305 1 15.053559 -7.568058 -3.165219
306 1 14.615717 -5.810321 -1.357719
307 1 14.176654 -4.050739 0.449781
308 1 13.736869 -2.290553 2.257281
309 1 16.363699 -5.369754 -3.165220
310 1 15.923818 -3.611769 -1.357720
311 1 15.483404 -1.852832 0.449780
312 1 15.041582 -0.093255 2.257280
313 1 17.672185 -3.171987 -3.165220
314 1 17.230927 -1.414036 -1.357720
315 1 16.788643 0.344568 0.449780
316 1 16.345338 2.102950 2.257280
317 1 18.979922 -0.975083 -3.165220
318 1 18.538030 0.782113 -1.357720
319 1 18.096339 2.538837 0.449780
320 1 17.655570 4.294188 2.257280
321 1 20.289701 1.219279 -3.165220
322 1 19.849627 2.974460 -1.357720
323 1 19.410886 4.728576 0.449780
324 1 18.973672 6.481283 2.257280
325 1 21.604378 3.410196 -3.165220
326 1 21.166958 5.163440 -1.357720
327 1 20.730821 6.915832 0.449780
328 1 20.295654 8.667416 2.257280
329 1 22.923177 5.599003 -3.165220
330 1 22.487411 7.351318 -1.357720
331 1 22.052180 9.103327 0.449780
332 1 21.616977 10.855183 2.257280
333 1 24.243298 7.787706 -3.165220
334 1 23.807669 9.540104 -1.357720
335 1 23.371869 11.292586 0.449780
336 1 22.935595 13.045186 2.257280
337 1 25.562360 9.977565 -3.165220
338 1 25.125966 11.730488 -1.357720
339 1 24.689118 13.483608 0.449780
340 1 26.879508 12.168777 -3.165220
341 1 26.442133 13.922258 -1.357720
342 1 28.194816 14.361079 -3.165220
343 1 9.333940 -14.595017 2.257281
344 1 11.095968 -14.154812 0.449781
345 1 10.667129 -12.402253 2.257281
346 1 12.852778 -13.712473 -1.357719
347 1 12.419156 -11.959894 0.449781
348 1 11.985258 -10.204692 2.257281
349 1 14.608034 -13.270215 -3.165219
350 1 14.172696 -11.518259 -1.357719
351 1 13.737973 -9.764677 0.449781
352 1 13.304008 -8.008968 2.257281
353 1 15.926490 -11.076717 -3.165219
354 1 15.490235 -9.323407 -1.357719
355 1 15.053559 -7.568058 0.449781
356 1 14.615717 -5.810321 2.257281
357 1 17.241721 -8.881570 -3.165219
358 1 16.803096 -7.126454 -1.357719
359 1 16.363699 -5.369754 0.449780
360 1 15.923818 -3.611769 2.257280
361 1 18.553075 -6.684924 -3.165220
362 1 18.112825 -4.928967 -1.357720
363 1 17.672185 -3.171987 0.449780
364 1 17.230927 -1.414036 2.257280
365 1 19.862712 -4.488250 -3.165220
366 1 19.421528 -2.732002 -1.357720
367 1 18.979922 -0.975083 0.449780
368 1 18.538030 0.782113 2.257280
369 1 21.171992 -2.292322 -3.165220
370 1 20.730662 -0.536480 -1.357720
371 1 20.289701 1.219279 0.449780
372 1 19.849627 2.974460 2.257280
373 1 22.483020 -0.098350 -3.165220
374 1 22.043131 1.656200 -1.357720
375 1 21.604378 3.410196 0.449780
376 1 21.166958 5.163440 2.257280
377 1 23.797694 2.093059 -3.165220
378 1 23.359872 3.846267 -1.357720
379 1 22.923177 5.599003 0.449780
380 1 22.487411 7.351318 2.257280
381 1 25.115573 4.282780 -3.165220
382 1 24.679144 6.035305 -1.357720
383 1 24.243298 7.787706 0.449780
384 1 23.807669 9.540104 2.257280
385 1 26.434663 6.472272 -3.165220
386 1 25.998503 8.224842 -1.357720
387 1 25.562360 9.977565 0.449780
388 1 25.125966 11.730488 2.257280
389 1 27.753116 8.662548 -3.165220
390 1 27.316453 10.415538 -1.357720
391 1 26.879508 12.168777 0.449780
392 1 26.442133 13.922258 2.257280
393 1 29.070097 10.853878 -3.165220
394 1 28.632657 12.607351 -1.357720
395 1 28.194816 14.361079 0.449780
396 1 30.385545 13.046111 -3.165220
397 1 12.852778 -13.712473 2.257281
398 1 15.042784 14.789752 -1.357719
399 1 14.608034 -13.270215 0.449781
400 1 14.172696 -11.518259 2.257281
401 1 16.798998 -14.579441 -3.165219
402 1 16.362829 -12.828610 -1.357719
403 1 15.926490 -11.076717 0.449781
404 1 15.490235 -9.323407 2.257281
405 1 18.116969 -12.387478 -3.165219
406 1 17.679589 -10.635124 -1.357719
407 1 17.241721 -8.881570 0.449781
408 1 16.803096 -7.126454 2.257281
409 1 19.431888 -10.193685 -3.165220
410 1 18.992824 -8.439825 -1.357720
411 1 18.553075 -6.684924 0.449780
412 1 18.112825 -4.928967 2.257280
413 1 20.743871 -7.998508 -3.165220
414 1 20.303506 -6.243738 -1.357720
415 1 19.862712 -4.488250 0.449780
416 1 19.421528 -2.732002 2.257280
417 1 22.054339 -5.803028 -3.165220
418 1 21.613290 -4.047891 -1.357720
419 1 21.171992 -2.292322 0.449780
420 1 20.730662 -0.536480 2.257280
421 1 23.364647 -3.608097 -3.165220
422 1 22.923664 -1.853197 -1.357720
423 1 22.483020 -0.098350 0.449780
424 1 22.043131 1.656200 2.257280
425 1 24.676440 -1.414641 -3.165220
426 1 24.236620 0.339396 -1.357720
427 1 23.797694 2.093059 0.449780
428 1 23.359872 3.846267 2.257280
429 1 25.991028 0.776916 -3.165220
430 1 25.552837 2.530012 -1.357720
431 1 25.115573 4.282780 0.449780
432 1 24.679144 6.035305 2.257280
433 1 27.308144 2.967160 -3.165220
434 1 26.871129 4.719754 -1.357720
435 1 26.434663 6.472272 0.449780
436 1 25.998503 8.224842 2.257280
437 1 28.626355 5.157150 -3.165220
438 1 28.189680 6.909778 -1.357720
439 1 27.753116 8.662548 0.449780
440 1 27.316453 10.415538 2.257280
441 1 29.944221 7.347692 -3.165220
442 1 29.507242 9.100666 -1.357720
443 1 29.070097 10.853878 0.449780
444 1 28.632657 12.607351 2.257280
445 1 31.260980 9.539068 -3.165220
446 1 30.823409 11.292465 -1.357720
447 1 30.385545 13.046111 0.449780
448 1 32.576489 11.731200 -3.165220
449 1 32.138279 13.484967 -1.357720
450 1 33.890951 13.923846 -3.165220
451 1 15.042784 14.789752 2.257281
452 1 16.798998 -14.579441 0.449781
453 1 16.362829 -12.828610 2.257281
454 1 18.553965 -14.139063 -1.357719
455 1 18.116969 -12.387478 0.449781
456 1 17.679589 -10.635124 2.257281
457 1 20.307944 -13.699068 -3.165220
458 1 19.870240 -11.946670 -1.357720
459 1 19.431888 -10.193685 0.449780
460 1 18.992824 -8.439825 2.257280
461 1 21.622743 -11.506172 -3.165220
462 1 21.183661 -9.752621 -1.357720
463 1 20.743871 -7.998508 0.449780
464 1 20.303506 -6.243738 2.257280
465 1 22.935193 -9.312030 -3.165220
466 1 22.495015 -7.557724 -1.357720
467 1 22.054339 -5.803028 0.449780
468 1 21.613290 -4.047891 2.257280
469 1 24.246360 -7.117494 -3.165220
470 1 23.805623 -5.362886 -1.357720
471 1 23.364647 -3.608097 0.449780
472 1 22.923664 -1.853197 2.257280
473 1 25.557450 -4.923351 -3.165220
474 1 25.116830 -3.168930 -1.357720
475 1 24.676440 -1.414641 0.449780
476 1 24.236620 0.339396 2.257280
477 1 26.869776 -2.730325 -3.165220
478 1 26.430074 -0.976537 -1.357720
479 1 25.991028 0.776916 0.449780
480 1 25.552837 2.530012 2.257280
481 1 28.184277 -0.538724 -3.165220
482 1 27.745852 1.214364 -1.357720
483 1 27.308144 2.967160 0.449780
484 1 26.871129 4.719754 2.257280
485 1 29.500790 1.651856 -3.165220
486 1 29.063340 3.404551 -1.357720
487 1 28.626355 5.157150 0.449780
488 1 28.189680 6.909778 2.257280
489 1 30.818275 3.842192 -3.165220
490 1 30.381181 5.594898 -1.357720
491 1 29.944221 7.347692 0.449780
492 1 29.507242 9.100666 2.257280
493 1 32.135612 6.032924 -3.165220
494 1 31.698347 7.785903 -1.357720
495 1 31.260980 9.539068 0.449780
496 1 30.823409 11.292465 2.257280
497 1 33.452129 8.224317 -3.165220
498 1 33.014420 9.977654 -1.357720
499 1 32.576489 11.731200 0.449780
500 1 32.138279 13.484967 2.257280
501 1 34.767642 10.416344 -3.165220
502 1 34.329422 12.170004 -1.357720
503 1 33.890951 13.923846 0.449780
504 1 36.082286 12.608815 -3.165220
505 1 35.643635 14.362694 -1.357720
506 1 18.553965 -14.139063 2.257281
507 1 20.307944 -13.699068 0.449780
508 1 19.870240 -11.946670 2.257280
509 1 22.498684 14.797907 -3.165220
510 1 22.061076 -13.259305 -1.357720
511 1 21.622743 -11.506172 0.449780
512 1 21.183661 -9.752621 2.257280
513 1 23.813573 -12.819700 -3.165220
514 1 23.374740 -11.066003 -1.357720
515 1 22.935193 -9.312030 0.449780
516 1 22.495015 -7.557724 2.257280
517 1 25.126498 -10.626161 -3.165220
518 1 24.686694 -8.871915 -1.357720
519 1 24.246360 -7.117494 0.449780
520 1 23.805623 -5.362886 2.257280
521 1 26.438324 -8.432246 -3.165220
522 1 25.998018 -6.677808 -1.357720
523 1 25.557450 -4.923351 0.449780
524 1 25.116830 -3.168930 2.257280
525 1 27.750088 -6.238629 -3.165220
526 1 27.309869 -4.484382 -1.357720
527 1 26.869776 -2.730325 0.449780
528 1 26.430074 -0.976537 2.257280
529 1 29.062849 -4.045881 -3.165220
530 1 28.623333 -2.292142 -1.357720
531 1 28.184277 -0.538724 0.449780
532 1 27.745852 1.214364 2.257280
533 1 30.377311 -1.854228 -3.165220
534 1 29.938782 -0.101046 -1.357720
535 1 29.500790 1.651856 0.449780
536 1 29.063340 3.404551 2.257280
537 1 31.693377 0.336617 -3.165220
538 1 31.255641 2.089467 -1.357720
539 1 30.818275 3.842192 0.449780
540 1 30.381181 5.594898 2.257280
541 1 33.010290 2.527233 -3.165220
542 1 32.572888 4.280062 -1.357720
543 1 32.135612 6.032924 0.449780
544 1 31.698347 7.785903 2.257280
545 1 34.327178 4.718127 -3.165220
546 1 33.889687 6.471158 -1.357720
547 1 33.452129 8.224317 0.449780
548 1 33.014420 9.977654 2.257280
549 1 35.643465 6.909544 -3.165220
550 1 35.205641 8.662864 -1.357720
551 1 34.767642 10.416344 0.449780
552 1 34.329422 12.170004 2.257280
553 1 36.958955 9.101485 -3.165220
554 1 36.520723 10.855077 -1.357720
555 1 36.082286 12.608815 0.449780
556 1 35.643635 14.362694 2.257280
557 1 38.273729 11.293809 -3.165220
558 1 37.835144 13.047591 -1.357720
559 1 39.588043 13.486304 -3.165220
560 1 22.498684 14.797907 0.449780
561 1 22.061076 -13.259305 2.257280
562 1 24.251683 -14.573179 -1.357720
563 1 23.813573 -12.819700 0.449780
564 1 23.374740 -11.066003 2.257280
565 1 26.004218 -14.134128 -3.165220
566 1 25.565683 -12.380234 -1.357720
567 1 25.126498 -10.626161 0.449780
568 1 24.686694 -8.871915 2.257280
569 1 27.317629 -11.940909 -3.165220
570 1 26.878225 -10.186625 -1.357720
571 1 26.438324 -8.432246 0.449780
572 1 25.998018 -6.677808 2.257280
573 1 28.630079 -9.747375 -3.165220
574 1 28.190212 -7.992984 -1.357720
575 1 27.750088 -6.238629 0.449780
576 1 27.309869 -4.484382 2.257280
577 1 29.942449 -7.554085 -3.165220
578 1 29.502620 -5.799887 -1.357720
579 1 29.062849 -4.045881 0.449780
580 1 28.623333 -2.292142 2.257280
581 1 31.255598 -5.361489 -3.165220
582 1 30.816294 -3.607716 -1.357720
583 1 30.377311 -1.854228 0.449780
584 1 29.938782 -0.101046 2.257280
585 1 32.570075 -3.169756 -3.165220
586 1 32.131527 -1.416442 -1.357720
587 1 31.693377 0.336617 0.449780
588 1 31.255641 2.089467 2.257280
589 1 33.885830 -0.978677 -3.165220
590 1 33.447915 0.774346 -1.357720
591 1 33.010290 2.527233 0.449780
592 1 32.572888 4.280062 2.257280
593 1 35.202308 1.212186 -3.165220
594 1 34.764689 2.965160 -1.357720
595 1 34.327178 4.718127 0.449780
596 1 33.889687 6.471158 2.257280
597 1 36.518832 3.403237 -3.165220
598 1 36.081173 5.156350 -1.357720
599 1 35.643465 6.909544 0.449780
600 1 35.205641 8.662864 2.257280
601 1 37.834919 5.594694 -3.165220
602 1 37.397007 7.348031 -1.357720
603 1 36.958955 9.101485 0.449780
604 1 36.520723 10.855077 2.257280
605 1 39.150375 7.786579 -3.165220
606 1 38.712137 9.540138 -1.357720
607 1 38.273729 11.293809 0.449780
608 1 37.835144 13.047591 2.257280
609 1 40.465245 9.978789 -3.165220
610 1 40.026716 11.732508 -1.357720
611 1 39.588043 13.486304 0.449780
612 1 41.779727 12.171153 -3.165220
613 1 41.341018 13.924939 -1.357720
614 1 43.094088 14.363494 -3.165221
615 1 24.251683 -14.573179 2.257280
616 1 26.004218 -14.134128 0.449780
617 1 25.565683 -12.380234 2.257280
618 1 27.756491 -13.695051 -1.357720
619 1 27.317629 -11.940909 0.449780
620 1 26.878225 -10.186625 2.257280
621 1 29.508668 -13.255991 -3.165220
622 1 29.069584 -11.501733 -1.357720
623 1 28.630079 -9.747375 0.449780
624 1 28.190212 -7.992984 2.257280
625 1 30.821674 -11.062718 -3.165220
626 1 30.382172 -9.308390 -1.357720
627 1 29.942449 -7.554085 0.449780
628 1 29.502620 -5.799887 2.257280
629 1 32.134572 -8.869647 -3.165220
630 1 31.695072 -7.115491 -1.357720
631 1 31.255598 -5.361489 0.449780
632 1 30.816294 -3.607716 2.257280
633 1 33.448067 -6.677136 -3.165220
634 1 33.008954 -4.923331 -1.357720
635 1 32.570075 -3.169756 0.449780
636 1 32.131527 -1.416442 2.257280
637 1 34.762594 -4.485317 -3.165220
638 1 34.324062 -2.731891 -1.357720
639 1 33.885830 -0.978677 0.449780
640 1 33.447915 0.774346 2.257280
641 1 36.078138 -2.294034 -3.165220
642 1 35.640108 -0.540862 -1.357720
643 1 35.202308 1.212186 0.449780
644 1 34.764689 2.965160 2.257280
645 1 37.394291 -0.102955 -3.165220
646 1 36.956515 1.650153 -1.357720
647 1 36.518832 3.403237 0.449780
648 1 36.081173 5.156350 2.257280
649 1 38.710527 2.088246 -3.165220
650 1 38.272740 3.841444 -1.357720
651 1 37.834919 5.594694 0.449780
652 1 37.397007 7.348031 2.257280
653 1 40.026446 4.279755 -3.165220
654 1 39.588467 6.033124 -1.357720
655 1 39.150375 7.786579 0.449780
656 1 38.712137 9.540138 2.257280
657 1 41.341868 6.471611 -3.165220
658 1 40.903626 8.225157 -1.357720
659 1 40.465245 9.978789 0.449780
660 1 40.026716 11.732508 2.257280
661 1 42.656810 8.663737 -3.165220
662 1 42.218329 10.417415 -1.357720
663 1 41.779727 12.171153 0.449780
664 1 41.341018 13.924939 2.257280
665 1 43.971426 10.856000 -3.165221
666 1 43.532792 12.609736 -1.357721
667 1 43.094088 14.363494 0.449779
668 1 45.285930 13.048254 -3.165221
669 1 27.756491 -13.695051 2.257280
670 1 29.947315 14.799997 -1.357720
671 1 29.508668 -13.255991 0.449780
672 1 29.069584 -11.501733 2.257280
673 1 31.699749 -14.571143 -3.165220
674 1 31.260878 -12.816992 -1.357720
675 1 30.821674 -11.062718 0.449780
676 1 30.382172 -9.308390 2.257280
677 1 33.013213 -12.378090 -3.165220
678 1 32.573981 -10.623873 -1.357720
679 1 32.134572 -8.869647 0.449780
680 1 31.695072 -7.115491 2.257280
681 1 34.326552 -10.185196 -3.165220
682 1 33.887301 -8.431114 -1.357720
683 1 33.448067 -6.677136 0.449780
684 1 33.008954 -4.923331 2.257280
685 1 35.640340 -7.992751 -3.165220
686 1 35.201378 -6.238948 -1.357720
687 1 34.762594 -4.485317 0.449780
688 1 34.324062 -2.731891 2.257280
689 1 36.954931 -5.800862 -3.165220
690 1 36.516417 -4.047365 -1.357720
691 1 36.078138 -2.294034 0.449780
692 1 35.640108 -0.540862 2.257280
693 1 38.270330 -3.609414 -3.165220
694 1 37.832217 -1.856132 -1.357720
695 1 37.394291 -0.102955 0.449780
696 1 36.956515 1.650153 2.257280
697 1 39.586238 -1.418154 -3.165220
698 1 39.148341 0.335059 -1.357720
699 1 38.710527 2.088246 0.449780
700 1 38.272740 3.841444 2.257280
701 1 40.902246 0.773179 -3.165220
702 1 40.464355 2.526449 -1.357720
703 1 40.026446 4.279755 0.449780
704 1 39.588467 6.033124 2.257280
705 1 42.218025 2.964745 -3.165220
706 1 41.779990 4.718145 -1.357720
707 1 41.341868 6.471611 0.449780
708 1 40.903626 8.225157 2.257280
709 1 43.533414 5.156588 -3.165221
710 1 43.095169 6.910128 -1.357720
711 1 42.656810 8.663737 0.449780
712 1 42.218329 10.417415 2.257280
713 1 44.848412 7.348654 -3.165221
714 1 44.409969 9.102302 -1.357721
715 1 43.971426 10.856000 0.449779
716 1 43.532792 12.609736 2.257279
717 1 46.163134 9.540838 -3.165221
718 1 45.724562 11.294537 -1.357721
719 1 45.285930 13.048254 0.449779
720 1 47.477755 11.733023 -3.165221
721 1 47.039147 13.486711 -1.357721
722 1 48.792441 13.925116 -3.165221
723 1 29.947315 14.799997 2.257280
724 1 31.699749 -14.571143 0.449780
725 1 31.260878 -12.816992 2.257280
726 1 33.452213 -14.132230 -1.357720
727 1 33.013213 -12.378090 0.449780
728 1 32.573981 -10.623873 2.257280
729 1 35.204775 -13.693392 -3.165220
730 1 34.765733 -11.939310 -1.357720
731 1 34.326552 -10.185196 0.449780
732 1 33.887301 -8.431114 2.257280
733 1 36.518466 -11.500661 -3.165220
734 1 36.079396 -9.746674 -1.357720
735 1 35.640340 -7.992751 0.449780
736 1 35.201378 -6.238948 2.257280
737 1 37.832493 -9.308283 -3.165220
738 1 37.393642 -7.554511 -1.357720
739 1 36.954931 -5.800862 0.449780
740 1 36.516417 -4.047365 2.257280
741 1 39.147145 -7.116350 -3.165220
742 1 38.708643 -5.362820 -1.357720
743 1 38.270330 -3.609414 0.449780
744 1 37.832217 -1.856132 2.257280
745 1 40.462442 -4.924779 -3.165220
746 1 40.024262 -3.171425 -1.357720
747 1 39.586238 -1.418154 0.449780
748 1 39.148341 0.335059 2.257280
749 1 41.778161 -2.733375 -3.165220
750 1 41.340166 -0.980087 -1.357720
751 1 40.902246 0.773179 0.449780
752 1 40.464355 2.526449 2.257280
753 1 43.093986 -0.541932 -3.165221
754 1 42.656010 1.211393 -1.357720
755 1 42.218025 2.964745 0.449780
756 1 41.779990 4.718145 2.257280
757 1 44.409649 1.649687 -3.165221
758 1 43.971564 3.403111 -1.357721
759 1 43.533414 5.156588 0.449779
760 1 43.095169 6.910128 2.257280
761 1 45.725005 3.841525 -3.165221
762 1 45.286754 5.595061 -1.357721
763 1 44.848412 7.348654 0.449779
764 1 44.409969 9.102302 2.257279
765 1 47.040044 6.033547 -3.165221
766 1 46.601630 7.787172 -1.357721
767 1 46.163134 9.540838 0.449779
768 1 45.724562 11.294537 2.257279
769 1 48.354852 8.225670 -3.165221
770 1 47.916329 9.979338 -1.357721
771 1 47.477755 11.733023 0.449779
772 1 47.039147 13.486711 2.257279
773 1 49.669567 10.417800 -3.165221
774 1 49.231009 12.171463 -1.357721
775 1 48.792441 13.925116 0.449779
776 1 50.984326 12.609861 -3.165221
777 1 50.545804 14.363480 -1.357721
778 1 33.452213 -14.132230 2.257280
779 1 35.204775 -13.693392 0.449780
780 1 34.765733 -11.939310 2.257280
781 1 37.396387 14.801473 -3.165220
782 1 36.957481 -13.254656 -1.357720
783 1 36.518466 -11.500661 0.449780
784 1 36.079396 -9.746674 2.257280
785 1 38.710355 -12.816031 -3.165220
786 1 38.271418 -11.062138 -1.357720
787 1 37.832493 -9.308283 0.449780
788 1 37.393642 -7.554511 2.257280
789 1 40.024572 -10.623724 -3.165220
790 1 39.585804 -8.869993 -1.357720
791 1 39.147145 -7.116350 0.449780
792 1 38.708643 -5.362820 2.257280
793 1 41.339279 -8.431770 -3.165220
794 1 40.900784 -6.678227 -1.357720
795 1 40.462442 -4.924779 0.449780
796 1 40.024262 -3.171425 2.257280
797 1 42.654500 -6.240110 -3.165220
798 1 42.216266 -4.486710 -1.357720
799 1 41.778161 -2.733375 0.449780
800 1 41.340166 -0.980087 2.257280
801 1 43.970072 -4.048596 -3.165221
802 1 43.531995 -2.295255 -1.357721
803 1 43.093986 -0.541932 0.449779
804 1 42.656010 1.211393 2.257280
805 1 45.285749 -1.857065 -3.165221
806 1 44.847699 -0.103699 -1.357721
807 1 44.409649 1.649687 0.449779
808 1 43.971564 3.403111 2.257279
809 1 46.601312 0.334599 -3.165221
810 1 46.163183 2.088040 -1.357721
811 1 45.725005 3.841525 0.449779
812 1 45.286754 5.595061 2.257279
813 1 47.916637 2.526436 -3.165221
814 1 47.478376 4.279968 -1.357721
815 1 47.040044 6.033547 0.449779
816 1 46.601630 7.787172 2.257279
817 1 49.231704 4.718424 -3.165221
818 1 48.793312 6.472030 -1.357721
819 1 48.354852 8.225670 0.449779
820 1 47.916329 9.979338 2.257279
821 1 50.546579 6.910499 -3.165221
822 1 50.108095 8.664142 -1.357721
823 1 49.669567 10.417800 0.449779
824 1 49.231009 12.171463 2.257279
825 1 51.861370 9.102585 -3.165222
826 1 51.422853 10.856226 -1.357721
827 1 50.984326 12.609861 0.449779
828 1 50.545804 14.363480 2.257279
829 1 53.176190 11.294619 -3.165222
830 1 52.737697 13.048226 -1.357722
831 1 54.491115 13.486567 -3.165222
832 1 37.396387 14.801473 0.449780
833 1 36.957481 -13.254656 2.257280
834 1 39.149245 -14.569924 -1.357720
835 1 38.710355 -12.816031 0.449780
836 1 38.271418 -11.062138 2.257280
837 1 40.902229 -14.131332 -3.165220
838 1 40.463398 -12.377515 -1.357720
839 1 40.024572 -10.623724 0.449780
840 1 39.585804 -8.869993 2.257280
841 1 42.216600 -11.939092 -3.165220
842 1 41.777897 -10.185397 -1.357720
843 1 41.339279 -8.431770 0.449780
844 1 40.900784 -6.678227 2.257280
845 1 43.531353 -9.747130 -3.165221
846 1 43.092866 -7.993583 -1.357721
847 1 42.654500 -6.240110 0.449780
848 1 42.216266 -4.486710 2.257280
849 1 44.846518 -7.555408 -3.165221
850 1 44.408242 -5.801976 -1.357721
851 1 43.970072 -4.048596 0.449779
852 1 43.531995 -2.295255 2.257279