ITEM: TIMESTEP
0
ITEM: NUMBER OF ATOMS
3656
ITEM: BOX BOUNDS xy xz yz mm pp pp
-1.0009999999999999e+02 1.0009999999999999e+02 0.0000000000000000e+00
-1.4905042650000000e+01 1.4905042650000000e+01 0.0000000000000000e+00
-3.6150000000000002e+00 3.6150000000000002e+00 0.0000000000000000e+00
ITEM: ATOMS id type x y z c_csym c_energy
1 1 0.438383 13.1515 -2.7075 6.36913 11.9549
2 1 -1.993e-07 7.45251 -2.7075 10.2953 -2.59346
3 1 1.31515 9.64443 -2.7075 5.53199 -3.45108
4 1 0.876766 11.398 -0.9 5.39464 -2.89716
5 1 0.438383 13.1515 0.9075 6.36913 11.9549
6 1 2.6303 11.8363 -2.7075 7.99823e-20 -3.5693
7 1 2.19192 13.5899 -0.9 4.00353e-09 -3.61557
8 1 3.94545 14.0283 -2.7075 4.00356e-09 -3.54237
9 1 0.876766 3.94545 -2.7075 5.39465 -2.89716
10 1 0.438383 5.69898 -0.9 6.3691 11.9549
11 1 -1.993e-07 7.45251 0.9075 10.2953 -2.59346
12 1 2.19192 6.13736 -2.7075 1.20024e-19 -3.61556
13 1 1.75353 7.8909 -0.9 1.57872 -3.52025
14 1 1.31515 9.64443 0.9075 5.53199 -3.45108
15 1 0.876766 11.398 2.715 5.39464 -2.89716
16 1 3.50706 8.32928 -2.7075 3.99943e-20 -3.53318
17 1 3.06868 10.0828 -0.9 8.00085e-20 -3.51745
18 1 2.6303 11.8363 0.9075 7.99823e-20 -3.5693
19 1 2.19192 13.5899 2.715 4.00353e-09 -3.61557
20 1 4.82221 10.5212 -2.7075 9.99837e-20 -3.54022
21 1 4.38383 12.2747 -0.9 6.00036e-20 -3.53959
22 1 3.94545 14.0283 0.9075 4.00356e-09 -3.54237
23 1 6.13736 12.7131 -2.7075 1.00088e-09 -3.54022
24 1 5.69898 14.4666 -0.9 6.00538e-09 -3.54022
25 1 0.438383 -1.75353 -2.7075 6.3691 11.9548
26 1 -2.84217e-14 0 -0.9 10.2953 -2.59346
27 1 1.75353 0.438383 -2.7075 1.57872 -3.52025
28 1 1.31515 2.19192 -0.9 5.53199 -3.45108
29 1 0.876766 3.94545 0.9075 5.39465 -2.89716
30 1 0.438383 5.69898 2.715 6.3691 11.9549
31 1 3.06868 2.6303 -2.7075 8.00398e-20 -3.51745
32 1 2.6303 4.38383 -0.9 5.00153e-20 -3.5693
33 1 2.19192 6.13736 0.9075 1.20024e-19 -3.61556
34 1 1.75353 7.8909 2.715 1.57872 -3.52025
35 1 4.38383 4.82221 -2.7075 3.99766e-20 -3.53959
36 1 3.94545 6.57575 -0.9 7.00409e-20 -3.54237
37 1 3.50706 8.32928 0.9075 3.99943e-20 -3.53318
38 1 3.06868 10.0828 2.715 8.00085e-20 -3.51745
39 1 5.69898 7.01413 -2.7075 7.99467e-20 -3.54022
40 1 5.2606 8.76766 -0.9 4.99791e-20 -3.54022
41 1 4.82221 10.5212 0.9075 9.99837e-20 -3.54022
42 1 4.38383 12.2747 2.715 6.00036e-20 -3.53959
43 1 7.01413 9.20605 -2.7075 6.99982e-20 -3.54022
44 1 6.57575 10.9596 -0.9 9.99318e-20 -3.54022
45 1 6.13736 12.7131 0.9075 1.00088e-09 -3.54022
46 1 5.69898 14.4666 2.715 6.00538e-09 -3.54022
47 1 8.32928 11.398 -2.7075 5.00046e-20 -3.54022
48 1 7.8909 13.1515 -0.9 3.00267e-09 -3.54022
49 1 9.64443 13.5899 -2.7075 4.00357e-09 -3.54022
50 1 1.993e-07 -7.45251 -2.7075 10.2953 -2.59347
51 1 1.31515 -5.2606 -2.7075 5.53199 -3.45108
52 1 0.876766 -3.50707 -0.9 5.39465 -2.89716
53 1 0.438383 -1.75353 0.9075 6.3691 11.9548
54 1 -2.84217e-14 0 2.715 10.2953 -2.59346
55 1 2.6303 -3.06868 -2.7075 7.99798e-20 -3.5693
56 1 2.19192 -1.31515 -0.9 1.00021e-19 -3.61556
57 1 1.75353 0.438383 0.9075 1.57872 -3.52025
58 1 1.31515 2.19192 2.715 5.53199 -3.45108
59 1 3.94545 -0.876766 -2.7075 4.99705e-20 -3.54237
60 1 3.50707 0.876766 -0.9 6.99638e-20 -3.53318
61 1 3.06868 2.6303 0.9075 8.00398e-20 -3.51745
62 1 2.6303 4.38383 2.715 5.00153e-20 -3.5693
63 1 5.2606 1.31515 -2.7075 8.00185e-20 -3.54022
64 1 4.82221 3.06868 -0.9 6.99748e-20 -3.54022
65 1 4.38383 4.82221 0.9075 3.99766e-20 -3.53959
66 1 3.94545 6.57575 2.715 7.00409e-20 -3.54237
67 1 6.57575 3.50707 -2.7075 9.99922e-20 -3.54022
68 1 6.13736 5.2606 -0.9 9.99865e-20 -3.54022
69 1 5.69898 7.01413 0.9075 7.99467e-20 -3.54022
70 1 5.2606 8.76766 2.715 4.99791e-20 -3.54022
71 1 7.8909 5.69898 -2.7075 6.99727e-20 -3.54022
72 1 7.45251 7.45251 -0.9 8.00036e-20 -3.54022
73 1 7.01413 9.20605 0.9075 6.99982e-20 -3.54022
74 1 6.57575 10.9596 2.715 9.99318e-20 -3.54022
75 1 9.20605 7.8909 -2.7075 6.99954e-20 -3.54022
76 1 8.76766 9.64443 -0.9 6.99833e-20 -3.54022
77 1 8.32928 11.398 0.9075 5.00046e-20 -3.54022
78 1 7.8909 13.1515 2.715 3.00267e-09 -3.54022
79 1 10.5212 10.0828 -2.7075 1.00033e-19 -3.54022
80 1 10.0828 11.8363 -0.9 9.99958e-20 -3.54022
81 1 9.64443 13.5899 0.9075 4.00357e-09 -3.54022
82 1 11.8363 12.2747 -2.7075 5.99865e-20 -3.54022
83 1 11.398 14.0283 -0.9 4.00355e-09 -3.54022
84 1 13.1515 14.4666 -2.7075 6.00534e-09 -3.54022
85 1 0.876767 -10.9596 -2.7075 5.39465 -2.89717
86 1 0.438383 -9.20605 -0.9 6.3691 11.9548
87 1 1.993e-07 -7.45251 0.9075 10.2953 -2.59347
88 1 2.19192 -8.76766 -2.7075 8.99805e-20 -3.61556
89 1 1.75353 -7.01413 -0.9 1.57872 -3.52025
90 1 1.31515 -5.2606 0.9075 5.53199 -3.45108
91 1 0.876766 -3.50707 2.715 5.39465 -2.89716
92 1 3.50707 -6.57575 -2.7075 1.00025e-19 -3.53318
93 1 3.06868 -4.82221 -0.9 6.99759e-20 -3.51745
94 1 2.6303 -3.06868 0.9075 7.99798e-20 -3.5693
95 1 2.19192 -1.31515 2.715 1.00021e-19 -3.61556
96 1 4.82221 -4.38383 -2.7075 4.00089e-20 -3.54022
97 1 4.38383 -2.6303 -0.9 5.00178e-20 -3.53959
98 1 3.94545 -0.876766 0.9075 4.99705e-20 -3.54237
99 1 3.50707 0.876766 2.715 6.99638e-20 -3.53318
100 1 6.13736 -2.19192 -2.7075 1.19969e-19 -3.54022
101 1 5.69898 -0.438383 -0.9 6.99961e-20 -3.54022
102 1 5.2606 1.31515 0.9075 8.00185e-20 -3.54022
103 1 4.82221 3.06868 2.715 6.99748e-20 -3.54022
104 1 7.45251 1.993e-07 -2.7075 4.99894e-20 -3.54022
105 1 7.01413 1.75353 -0.9 7.9967e-20 -3.54022
106 1 6.57575 3.50707 0.9075 9.99922e-20 -3.54022
107 1 6.13736 5.2606 2.715 9.99865e-20 -3.54022
108 1 8.76766 2.19192 -2.7075 9.0005e-20 -3.54022
109 1 8.32928 3.94545 -0.9 2.9984e-20 -3.54022
110 1 7.8909 5.69898 0.9075 6.99727e-20 -3.54022
111 1 7.45251 7.45251 2.715 8.00036e-20 -3.54022
112 1 10.0828 4.38383 -2.7075 6.0005e-20 -3.54022
113 1 9.64443 6.13736 -0.9 1.00028e-19 -3.54022
114 1 9.20605 7.8909 0.9075 6.99954e-20 -3.54022
115 1 8.76766 9.64443 2.715 6.99833e-20 -3.54022
116 1 11.398 6.57575 -2.7075 1.00016e-19 -3.54022
117 1 10.9596 8.32928 -0.9 5.00281e-20 -3.54022
118 1 10.5212 10.0828 0.9075 1.00033e-19 -3.54022
119 1 10.0828 11.8363 2.715 9.99958e-20 -3.54022
120 1 12.7131 8.76766 -2.7075 4.00021e-20 -3.54022
121 1 12.2747 10.5212 -0.9 5.99851e-20 -3.54022
122 1 11.8363 12.2747 0.9075 5.99865e-20 -3.54022
123 1 11.398 14.0283 2.715 4.00355e-09 -3.54022
124 1 14.0283 10.9596 -2.7075 1.19928e-19 -3.54022
125 1 13.5899 12.7131 -0.9 1.00089e-09 -3.54022
126 1 13.1515 14.4666 0.9075 6.00534e-09 -3.54022
127 1 15.3434 13.1515 -2.7075 3.00265e-09 -3.54022
128 1 3.986e-07 -14.905 -0.9 10.2953 -2.59353
129 1 1.75353 -14.4666 -2.7075 1.57872 -3.52025
130 1 1.31515 -12.7131 -0.9 5.53199 -3.45108
131 1 0.876767 -10.9596 0.9075 5.39465 -2.89717
132 1 0.438383 -9.20605 2.715 6.3691 11.9548
133 1 3.06868 -12.2747 -2.7075 4.99933e-20 -3.51745
134 1 2.6303 -10.5212 -0.9 1.20022e-19 -3.5693
135 1 2.19192 -8.76766 0.9075 8.99805e-20 -3.61556
136 1 1.75353 -7.01413 2.715 1.57872 -3.52025
137 1 4.38383 -10.0828 -2.7075 5.99766e-20 -3.53959
138 1 3.94545 -8.32928 -0.9 2.99997e-20 -3.54237
139 1 3.50707 -6.57575 0.9075 1.00025e-19 -3.53318
140 1 3.06868 -4.82221 2.715 6.99759e-20 -3.51745
141 1 5.69898 -7.8909 -2.7075 6.99968e-20 -3.54022
142 1 5.2606 -6.13736 -0.9 9.99805e-20 -3.54022
143 1 4.82221 -4.38383 0.9075 4.00089e-20 -3.54022
144 1 4.38383 -2.6303 2.715 5.00178e-20 -3.53959
145 1 7.01413 -5.69898 -2.7075 8.00064e-20 -3.54022
146 1 6.57575 -3.94545 -0.9 7.00039e-20 -3.54022
147 1 6.13736 -2.19192 0.9075 1.19969e-19 -3.54022
148 1 5.69898 -0.438383 2.715 6.99961e-20 -3.54022
149 1 8.32928 -3.50706 -2.7075 4.00043e-20 -3.54022
150 1 7.8909 -1.75353 -0.9 8.99826e-20 -3.54022
151 1 7.45251 1.993e-07 0.9075 4.99894e-20 -3.54022
152 1 7.01413 1.75353 2.715 7.9967e-20 -3.54022
153 1 9.64443 -1.31515 -2.7075 7.99993e-20 -3.54022
154 1 9.20605 0.438383 -0.9 5.00029e-20 -3.54022
155 1 8.76766 2.19192 0.9075 9.0005e-20 -3.54022
156 1 8.32928 3.94545 2.715 2.9984e-20 -3.54022
157 1 10.9596 0.876767 -2.7075 6.99823e-20 -3.54022
158 1 10.5212 2.6303 -0.9 1.20014e-19 -3.54022
159 1 10.0828 4.38383 0.9075 6.0005e-20 -3.54022
160 1 9.64443 6.13736 2.715 1.00028e-19 -3.54022
161 1 12.2747 3.06868 -2.7075 4.99762e-20 -3.54022
162 1 11.8363 4.82221 -0.9 5.99808e-20 -3.54022
163 1 11.398 6.57575 0.9075 1.00016e-19 -3.54022
164 1 10.9596 8.32928 2.715 5.00281e-20 -3.54022
165 1 13.5899 5.2606 -2.7075 7.99986e-20 -3.54022
166 1 13.1515 7.01413 -0.9 7.99815e-20 -3.54022
167 1 12.7131 8.76766 0.9075 4.00021e-20 -3.54022
168 1 12.2747 10.5212 2.715 5.99851e-20 -3.54022
169 1 14.905 7.45251 -2.7075 7.99837e-20 -3.54022
170 1 14.4666 9.20605 -0.9 8.99748e-20 -3.54022
171 1 14.0283 10.9596 0.9075 1.19928e-19 -3.54022
172 1 13.5899 12.7131 2.715 1.00089e-09 -3.54022
173 1 16.2202 9.64443 -2.7075 5.00075e-20 -3.54022
174 1 15.7818 11.398 -0.9 6.99975e-20 -3.54022
175 1 15.3434 13.1515 0.9075 3.00265e-09 -3.54022
176 1 17.5353 11.8363 -2.7075 8.00434e-20 -3.54022
177 1 17.0969 13.5899 -0.9 4.00356e-09 -3.54022
178 1 18.8505 14.0283 -2.7075 4.00353e-09 -3.54022
179 1 3.986e-07 -14.905 2.715 10.2953 -2.59353
180 1 1.75353 -14.4666 0.9075 1.57872 -3.52025
181 1 1.31515 -12.7131 2.715 5.53199 -3.45108
182 1 3.50707 -14.0283 -0.9 4.00357e-09 -3.53318
183 1 3.06868 -12.2747 0.9075 4.99933e-20 -3.51745
184 1 2.6303 -10.5212 2.715 1.20022e-19 -3.5693
185 1 5.2606 -13.5899 -2.7075 3.00266e-09 -3.54022
186 1 4.82221 -11.8363 -0.9 6.00021e-20 -3.54022
187 1 4.38383 -10.0828 0.9075 5.99766e-20 -3.53959
188 1 3.94545 -8.32928 2.715 2.99997e-20 -3.54237
189 1 6.57575 -11.398 -2.7075 9.99972e-20 -3.54022
190 1 6.13736 -9.64443 -0.9 9.99965e-20 -3.54022
191 1 5.69898 -7.8909 0.9075 6.99968e-20 -3.54022
192 1 5.2606 -6.13736 2.715 9.99805e-20 -3.54022
193 1 7.8909 -9.20605 -2.7075 7.00053e-20 -3.54022
194 1 7.45251 -7.45251 -0.9 7.99933e-20 -3.54022
195 1 7.01413 -5.69898 0.9075 8.00064e-20 -3.54022
196 1 6.57575 -3.94545 2.715 7.00039e-20 -3.54022
197 1 9.20605 -7.01413 -2.7075 6.99798e-20 -3.54022
198 1 8.76766 -5.2606 -0.9 5.00082e-20 -3.54022
199 1 8.32928 -3.50706 0.9075 4.00043e-20 -3.54022
200 1 7.8909 -1.75353 2.715 8.99826e-20 -3.54022
201 1 10.5212 -4.82221 -2.7075 9.99911e-20 -3.54022
202 1 10.0828 -3.06868 -0.9 7.99688e-20 -3.54022
203 1 9.64443 -1.31515 0.9075 7.99993e-20 -3.54022
204 1 9.20605 0.438383 2.715 5.00029e-20 -3.54022
205 1 11.8363 -2.6303 -2.7075 8e-20 -3.54022
206 1 11.398 -0.876766 -0.9 7.9973e-20 -3.54022
207 1 10.9596 0.876767 0.9075 6.99823e-20 -3.54022
208 1 10.5212 2.6303 2.715 1.20014e-19 -3.54022
209 1 13.1515 -0.438383 -2.7075 6.00014e-20 -3.54022
210 1 12.7131 1.31515 -0.9 5.00068e-20 -3.54022
211 1 12.2747 3.06868 0.9075 4.99762e-20 -3.54022
212 1 11.8363 4.82221 2.715 5.99808e-20 -3.54022
213 1 14.4666 1.75353 -2.7075 9.99855e-20 -3.54022
214 1 14.0283 3.50707 -0.9 7.99844e-20 -3.54022
215 1 13.5899 5.2606 0.9075 7.99986e-20 -3.54022
216 1 13.1515 7.01413 2.715 7.99815e-20 -3.54022
217 1 15.7818 3.94545 -2.7075 6.99961e-20 -3.54022
218 1 15.3434 5.69898 -0.9 7.99943e-20 -3.54022
219 1 14.905 7.45251 0.9075 7.99837e-20 -3.54022
220 1 14.4666 9.20605 2.715 8.99748e-20 -3.54022
221 1 17.0969 6.13736 -2.7075 6.99947e-20 -3.54022
222 1 16.6586 7.8909 -0.9 5.00238e-20 -3.54022
223 1 16.2202 9.64443 0.9075 5.00075e-20 -3.54022
224 1 15.7818 11.398 2.715 6.99975e-20 -3.54022
225 1 18.4121 8.32928 -2.7075 9.00089e-20 -3.54022
226 1 17.9737 10.0828 -0.9 8.00064e-20 -3.54022
227 1 17.5353 11.8363 0.9075 8.00434e-20 -3.54022
228 1 17.0969 13.5899 2.715 4.00356e-09 -3.54022
229 1 19.7272 10.5212 -2.7075 1.00028e-19 -3.54022
230 1 19.2889 12.2747 -0.9 6.99769e-20 -3.54022
231 1 18.8505 14.0283 0.9075 4.00353e-09 -3.54022
232 1 21.0424 12.7131 -2.7075 1.00089e-09 -3.54022
233 1 20.604 14.4666 -0.9 6.00534e-09 -3.54022
234 1 3.50707 -14.0283 2.715 4.00357e-09 -3.53318
235 1 5.2606 -13.5899 0.9075 3.00266e-09 -3.54022
236 1 4.82221 -11.8363 2.715 6.00021e-20 -3.54022
237 1 7.45251 -14.905 -2.7075 6.00536e-09 -3.54022
238 1 7.01413 -13.1515 -0.9 1.0009e-09 -3.54022
239 1 6.57575 -11.398 0.9075 9.99972e-20 -3.54022
240 1 6.13736 -9.64443 2.715 9.99965e-20 -3.54022
241 1 8.76766 -12.7131 -2.7075 3.99837e-20 -3.54022
242 1 8.32928 -10.9596 -0.9 4.99791e-20 -3.54022
243 1 7.8909 -9.20605 0.9075 7.00053e-20 -3.54022
244 1 7.45251 -7.45251 2.715 7.99933e-20 -3.54022
245 1 10.0828 -10.5212 -2.7075 1.00015e-19 -3.54022
246 1 9.64443 -8.76766 -0.9 6.99855e-20 -3.54022
247 1 9.20605 -7.01413 0.9075 6.99798e-20 -3.54022
248 1 8.76766 -5.2606 2.715 5.00082e-20 -3.54022
249 1 11.398 -8.32928 -2.7075 4.99961e-20 -3.54022
250 1 10.9596 -6.57575 -0.9 1.0001e-19 -3.54022
251 1 10.5212 -4.82221 0.9075 9.99911e-20 -3.54022
252 1 10.0828 -3.06868 2.715 7.99688e-20 -3.54022
253 1 12.7131 -6.13736 -2.7075 6.00021e-20 -3.54022
254 1 12.2747 -4.38383 -0.9 6.00021e-20 -3.54022
255 1 11.8363 -2.6303 0.9075 8e-20 -3.54022
256 1 11.398 -0.876766 2.715 7.9973e-20 -3.54022
257 1 14.0283 -3.94545 -2.7075 3.9994e-20 -3.54022
258 1 13.5899 -2.19192 -0.9 9.99858e-20 -3.54022
259 1 13.1515 -0.438383 0.9075 6.00014e-20 -3.54022
260 1 12.7131 1.31515 2.715 5.00068e-20 -3.54022
261 1 15.3434 -1.75353 -2.7075 9.99901e-20 -3.54022
262 1 14.905 3.986e-07 -0.9 6.99929e-20 -3.54022
263 1 14.4666 1.75353 0.9075 9.99855e-20 -3.54022
264 1 14.0283 3.50707 2.715 7.99844e-20 -3.54022
265 1 16.6586 0.438384 -2.7075 9.98901e-21 -3.54022
266 1 16.2202 2.19192 -0.9 8.99876e-20 -3.54022
267 1 15.7818 3.94545 0.9075 6.99961e-20 -3.54022
268 1 15.3434 5.69898 2.715 7.99943e-20 -3.54022
269 1 17.9737 2.6303 -2.7075 1.00005e-19 -3.54022
270 1 17.5353 4.38383 -0.9 5.00053e-20 -3.54022
271 1 17.0969 6.13736 0.9075 6.99947e-20 -3.54022
272 1 16.6586 7.8909 2.715 5.00238e-20 -3.54022
273 1 19.2889 4.82222 -2.7075 5.00203e-20 -3.54022
274 1 18.8505 6.57575 -0.9 1.20043e-19 -3.54022
275 1 18.4121 8.32928 0.9075 9.00089e-20 -3.54022
276 1 17.9737 10.0828 2.715 8.00064e-20 -3.54022
277 1 20.604 7.01413 -2.7075 6.99677e-20 -3.54022
278 1 20.1656 8.76766 -0.9 2.99883e-20 -3.54022
279 1 19.7272 10.5212 0.9075 1.00028e-19 -3.54022
280 1 19.2889 12.2747 2.715 6.99769e-20 -3.54022
281 1 21.9192 9.20605 -2.7075 6.99918e-20 -3.54022
282 1 21.4808 10.9596 -0.9 1.00032e-19 -3.54022
283 1 21.0424 12.7131 0.9075 1.00089e-09 -3.54022
284 1 20.604 14.4666 2.715 6.00534e-09 -3.54022
285 1 23.2343 11.398 -2.7075 7.99865e-20 -3.54022
286 1 22.7959 13.1515 -0.9 3.00265e-09 -3.54022
287 1 24.5495 13.5899 -2.7075 4.00355e-09 -3.54022
288 1 7.45251 -14.905 0.9075 6.00536e-09 -3.54022
289 1 7.01413 -13.1515 2.715 1.0009e-09 -3.54022
290 1 9.20605 -14.4666 -0.9 4.00355e-09 -3.54022
291 1 8.76766 -12.7131 0.9075 3.99837e-20 -3.54022
292 1 8.32928 -10.9596 2.715 4.99791e-20 -3.54022
293 1 10.9596 -14.0283 -2.7075 4.00358e-09 -3.54022
294 1 10.5212 -12.2747 -0.9 6.00021e-20 -3.54022
295 1 10.0828 -10.5212 0.9075 1.00015e-19 -3.54022
296 1 9.64443 -8.76766 2.715 6.99855e-20 -3.54022
297 1 12.2747 -11.8363 -2.7075 6.001e-20 -3.54022
298 1 11.8363 -10.0828 -0.9 1e-19 -3.54022
299 1 11.398 -8.32928 0.9075 4.99961e-20 -3.54022
300 1 10.9596 -6.57575 2.715 1.0001e-19 -3.54022
301 1 13.5899 -9.64443 -2.7075 8.00484e-20 -3.54022
302 1 13.1515 -7.8909 -0.9 3.99986e-20 -3.54022
303 1 12.7131 -6.13736 0.9075 6.00021e-20 -3.54022
304 1 12.2747 -4.38383 2.715 6.00021e-20 -3.54022
305 1 14.905 -7.45251 -2.7075 9.0026e-20 -3.54022
306 1 14.4666 -5.69898 -0.9 1.20076e-19 -3.54022
307 1 14.0283 -3.94545 0.9075 3.9994e-20 -3.54022
308 1 13.5899 -2.19192 2.715 9.99858e-20 -3.54022
309 1 16.2202 -5.2606 -2.7075 6.99901e-20 -3.54022
310 1 15.7818 -3.50706 -0.9 7.00114e-20 -3.54022
311 1 15.3434 -1.75353 0.9075 9.99901e-20 -3.54022
312 1 14.905 3.986e-07 2.715 6.99929e-20 -3.54022
313 1 17.5353 -3.06868 -2.7075 8.00043e-20 -3.54022
314 1 17.0969 -1.31515 -0.9 6.99805e-20 -3.54022
315 1 16.6586 0.438384 0.9075 9.98901e-21 -3.54022
316 1 16.2202 2.19192 2.715 8.99876e-20 -3.54022
317 1 18.8505 -0.876766 -2.7075 9.99837e-20 -3.54022
318 1 18.4121 0.876767 -0.9 9.00057e-20 -3.54022
319 1 17.9737 2.6303 0.9075 1.00005e-19 -3.54022
320 1 17.5353 4.38383 2.715 5.00053e-20 -3.54022
321 1 20.1656 1.31515 -2.7075 6.99702e-20 -3.54022
322 1 19.7272 3.06868 -0.9 8.00178e-20 -3.54022
323 1 19.2889 4.82222 0.9075 5.00203e-20 -3.54022
324 1 18.8505 6.57575 2.715 1.20043e-19 -3.54022
325 1 21.4808 3.50707 -2.7075 6.99854e-20 -3.54022
326 1 21.0424 5.2606 -0.9 3.99752e-20 -3.54022
327 1 20.604 7.01413 0.9075 6.99677e-20 -3.54022
328 1 20.1656 8.76766 2.715 2.99883e-20 -3.54022
329 1 22.7959 5.69898 -2.7075 1.00038e-19 -3.54022
330 1 22.3575 7.45251 -0.9 7.99744e-20 -3.54022
331 1 21.9192 9.20605 0.9075 6.99918e-20 -3.54022
332 1 21.4808 10.9596 2.715 1.00032e-19 -3.54022
333 1 24.1111 7.8909 -2.7075 8.00093e-20 -3.54022
334 1 23.6727 9.64443 -0.9 7.99972e-20 -3.54022
335 1 23.2343 11.398 0.9075 7.99865e-20 -3.54022
336 1 22.7959 13.1515 2.715 3.00265e-09 -3.54022
337 1 25.4262 10.0828 -2.7075 6.99961e-20 -3.54022
338 1 24.9878 11.8363 -0.9 5.0011e-20 -3.54022
339 1 24.5495 13.5899 0.9075 4.00355e-09 -3.54022
340 1 26.7414 12.2747 -2.7075 1.00023e-19 -3.54022
341 1 26.303 14.0283 -0.9 4.00357e-09 -3.54022
342 1 28.0565 14.4666 -2.7075 6.00531e-09 -3.54022
343 1 9.20605 -14.4666 2.715 4.00355e-09 -3.54022
344 1 10.9596 -14.0283 0.9075 4.00358e-09 -3.54022
345 1 10.5212 -12.2747 2.715 6.00021e-20 -3.54022
346 1 12.7131 -13.5899 -0.9 3.00267e-09 -3.54022
347 1 12.2747 -11.8363 0.9075 6.001e-20 -3.54022
348 1 11.8363 -10.0828 2.715 1e-19 -3.54022
349 1 14.4666 -13.1515 -2.7075 1.00088e-09 -3.54022
350 1 14.0283 -11.398 -0.9 8.00363e-20 -3.54022
351 1 13.5899 -9.64443 0.9075 8.00484e-20 -3.54022
352 1 13.1515 -7.8909 2.715 3.99986e-20 -3.54022
353 1 15.7818 -10.9596 -2.7075 8.00171e-20 -3.54022
354 1 15.3434 -9.20605 -0.9 7.99929e-20 -3.54022
355 1 14.905 -7.45251 0.9075 9.0026e-20 -3.54022
356 1 14.4666 -5.69898 2.715 1.20076e-19 -3.54022
357 1 17.0969 -8.76766 -2.7075 5.00217e-20 -3.54022
358 1 16.6586 -7.01413 -0.9 5.00156e-20 -3.54022
359 1 16.2202 -5.2606 0.9075 6.99901e-20 -3.54022
360 1 15.7818 -3.50706 2.715 7.00114e-20 -3.54022
361 1 18.4121 -6.57575 -2.7075 7.99691e-20 -3.54022
362 1 17.9737 -4.82221 -0.9 8.00164e-20 -3.54022
363 1 17.5353 -3.06868 0.9075 8.00043e-20 -3.54022
364 1 17.0969 -1.31515 2.715 6.99805e-20 -3.54022
365 1 19.7272 -4.38383 -2.7075 6.99837e-20 -3.54022
366 1 19.2889 -2.6303 -0.9 7.99624e-20 -3.54022
367 1 18.8505 -0.876766 0.9075 9.99837e-20 -3.54022
368 1 18.4121 0.876767 2.715 9.00057e-20 -3.54022
369 1 21.0424 -2.19192 -2.7075 5.00277e-20 -3.54022
370 1 20.604 -0.438383 -0.9 4.99918e-20 -3.54022
371 1 20.1656 1.31515 0.9075 6.99702e-20 -3.54022
372 1 19.7272 3.06868 2.715 8.00178e-20 -3.54022
373 1 22.3575 5.978e-07 -2.7075 7.00103e-20 -3.54022
374 1 21.9192 1.75353 -0.9 8.00036e-20 -3.54022
375 1 21.4808 3.50707 0.9075 6.99854e-20 -3.54022
376 1 21.0424 5.2606 2.715 3.99752e-20 -3.54022
377 1 23.6727 2.19192 -2.7075 7.99741e-20 -3.54022
378 1 23.2343 3.94545 -0.9 9.99986e-20 -3.54022
379 1 22.7959 5.69898 0.9075 1.00038e-19 -3.54022
380 1 22.3575 7.45251 2.715 7.99744e-20 -3.54022
381 1 24.9878 4.38383 -2.7075 3.00181e-20 -3.54022
382 1 24.5495 6.13736 -0.9 6.9999e-20 -3.54022
383 1 24.1111 7.8909 0.9075 8.00093e-20 -3.54022
384 1 23.6727 9.64443 2.715 7.99972e-20 -3.54022
385 1 26.303 6.57575 -2.7075 1.00028e-19 -3.54022
386 1 25.8646 8.32928 -0.9 6.99933e-20 -3.54022
387 1 25.4262 10.0828 0.9075 6.99961e-20 -3.54022
388 1 24.9878 11.8363 2.715 5.0011e-20 -3.54022
389 1 27.6181 8.76766 -2.7075 4.99975e-20 -3.54022
390 1 27.1798 10.5212 -0.9 1.00065e-19 -3.54022
391 1 26.7414 12.2747 0.9075 1.00023e-19 -3.54022
392 1 26.303 14.0283 2.715 4.00357e-09 -3.54022
393 1 28.9333 10.9596 -2.7075 6.99997e-20 -3.54022
394 1 28.4949 12.7131 -0.9 1.00089e-09 -3.54022
395 1 28.0565 14.4666 0.9075 6.00531e-09 -3.54022
396 1 30.2484 13.1515 -2.7075 3.00267e-09 -3.54022
397 1 12.7131 -13.5899 2.715 3.00267e-09 -3.54022
398 1 14.905 -14.905 -0.9 6.0053e-09 -3.54022
399 1 14.4666 -13.1515 0.9075 1.00088e-09 -3.54022
400 1 14.0283 -11.398 2.715 8.00363e-20 -3.54022
401 1 16.6586 -14.4666 -2.7075 4.00356e-09 -3.54022
402 1 16.2202 -12.7131 -0.9 7.00075e-20 -3.54022
403 1 15.7818 -10.9596 0.9075 8.00171e-20 -3.54022
404 1 15.3434 -9.20605 2.715 7.99929e-20 -3.54022
405 1 17.9737 -12.2747 -2.7075 4.99968e-20 -3.54022
406 1 17.5353 -10.5212 -0.9 6.99727e-20 -3.54022
407 1 17.0969 -8.76766 0.9075 5.00217e-20 -3.54022
408 1 16.6586 -7.01413 2.715 5.00156e-20 -3.54022
409 1 19.2889 -10.0828 -2.7075 1.20045e-19 -3.54022
410 1 18.8505 -8.32928 -0.9 8.99911e-20 -3.54022
411 1 18.4121 -6.57575 0.9075 7.99691e-20 -3.54022
412 1 17.9737 -4.82221 2.715 8.00164e-20 -3.54022
413 1 20.604 -7.8909 -2.7075 3.00036e-20 -3.54022
414 1 20.1656 -6.13736 -0.9 1.00013e-19 -3.54022
415 1 19.7272 -4.38383 0.9075 6.99837e-20 -3.54022
416 1 19.2889 -2.6303 2.715 7.99624e-20 -3.54022
417 1 21.9192 -5.69898 -2.7075 1.00036e-19 -3.54022
418 1 21.4808 -3.94545 -0.9 4.00032e-20 -3.54022
419 1 21.0424 -2.19192 0.9075 5.00277e-20 -3.54022
420 1 20.604 -0.438383 2.715 4.99918e-20 -3.54022
421 1 23.2343 -3.50706 -2.7075 7.00146e-20 -3.54022
422 1 22.7959 -1.75353 -0.9 1.19983e-19 -3.54022
423 1 22.3575 5.978e-07 0.9075 7.00103e-20 -3.54022
424 1 21.9192 1.75353 2.715 8.00036e-20 -3.54022
425 1 24.5495 -1.31515 -2.7075 8.99858e-20 -3.54022
426 1 24.1111 0.438384 -0.9 4.99879e-20 -3.54022
427 1 23.6727 2.19192 0.9075 7.99741e-20 -3.54022
428 1 23.2343 3.94545 2.715 9.99986e-20 -3.54022
429 1 25.8646 0.876767 -2.7075 5.00021e-20 -3.54022
430 1 25.4262 2.6303 -0.9 9.0016e-20 -3.54022
431 1 24.9878 4.38383 0.9075 3.00181e-20 -3.54022
432 1 24.5495 6.13736 2.715 6.9999e-20 -3.54022
433 1 27.1798 3.06868 -2.7075 1.20006e-19 -3.54022
434 1 26.7414 4.82222 -0.9 6.00128e-20 -3.54022
435 1 26.303 6.57575 0.9075 1.00028e-19 -3.54022
436 1 25.8646 8.32928 2.715 6.99933e-20 -3.54022
437 1 28.4949 5.2606 -2.7075 6.00007e-20 -3.54022
438 1 28.0565 7.01413 -0.9 1.00019e-19 -3.54022
439 1 27.6181 8.76766 0.9075 4.99975e-20 -3.54022
440 1 27.1798 10.5212 2.715 1.00065e-19 -3.54022
441 1 29.8101 7.45251 -2.7075 6.99727e-20 -3.54022
442 1 29.3717 9.20605 -0.9 2.00014e-20 -3.54022
443 1 28.9333 10.9596 0.9075 6.99997e-20 -3.54022
444 1 28.4949 12.7131 2.715 1.00089e-09 -3.54022
445 1 31.1252 9.64443 -2.7075 9.00267e-20 -3.54022
446 1 30.6868 11.398 -0.9 1.00009e-19 -3.54022
447 1 30.2484 13.1515 0.9075 3.00267e-09 -3.54022
448 1 32.4404 11.8363 -2.7075 8.00249e-20 -3.54022
449 1 32.002 13.5899 -0.9 4.00353e-09 -3.54022
450 1 33.7555 14.0283 -2.7075 4.00356e-09 -3.54022
451 1 14.905 -14.905 2.715 6.0053e-09 -3.54022
452 1 16.6586 -14.4666 0.9075 4.00356e-09 -3.54022
453 1 16.2202 -12.7131 2.715 7.00075e-20 -3.54022
454 1 18.4121 -14.0283 -0.9 4.00353e-09 -3.54022
455 1 17.9737 -12.2747 0.9075 4.99968e-20 -3.54022
456 1 17.5353 -10.5212 2.715 6.99727e-20 -3.54022
457 1 20.1656 -13.5899 -2.7075 3.00267e-09 -3.54022
458 1 19.7272 -11.8363 -0.9 5.00011e-20 -3.54022
459 1 19.2889 -10.0828 0.9075 1.20045e-19 -3.54022
460 1 18.8505 -8.32928 2.715 8.99911e-20 -3.54022
461 1 21.4808 -11.398 -2.7075 4.00178e-20 -3.54022
462 1 21.0424 -9.64443 -0.9 7.00416e-20 -3.54022
463 1 20.604 -7.8909 0.9075 3.00036e-20 -3.54022
464 1 20.1656 -6.13736 2.715 1.00013e-19 -3.54022
465 1 22.7959 -9.20605 -2.7075 7.99979e-20 -3.54022
466 1 22.3575 -7.45251 -0.9 7.00199e-20 -3.54022
467 1 21.9192 -5.69898 0.9075 1.00036e-19 -3.54022
468 1 21.4808 -3.94545 2.715 4.00032e-20 -3.54022
469 1 24.1111 -7.01413 -2.7075 8.0011e-20 -3.54022
470 1 23.6727 -5.2606 -0.9 7.99855e-20 -3.54022
471 1 23.2343 -3.50706 0.9075 7.00146e-20 -3.54022
472 1 22.7959 -1.75353 2.715 1.19983e-19 -3.54022
473 1 25.4262 -4.82221 -2.7075 5.00046e-20 -3.54022
474 1 24.9878 -3.06868 -0.9 4.00011e-20 -3.54022
475 1 24.5495 -1.31515 0.9075 8.99858e-20 -3.54022
476 1 24.1111 0.438384 2.715 4.99879e-20 -3.54022
477 1 26.7414 -2.6303 -2.7075 8.00043e-20 -3.54022
478 1 26.303 -0.876766 -0.9 7.99947e-20 -3.54022
479 1 25.8646 0.876767 0.9075 5.00021e-20 -3.54022
480 1 25.4262 2.6303 2.715 9.0016e-20 -3.54022
481 1 28.0565 -0.438382 -2.7075 7.99656e-20 -3.54022
482 1 27.6181 1.31515 -0.9 6.99954e-20 -3.54022
483 1 27.1798 3.06868 0.9075 1.20006e-19 -3.54022
484 1 26.7414 4.82222 2.715 6.00128e-20 -3.54022
485 1 29.3717 1.75353 -2.7075 5.00224e-20 -3.54022
486 1 28.9333 3.50707 -0.9 5.00018e-20 -3.54022
487 1 28.4949 5.2606 0.9075 6.00007e-20 -3.54022
488 1 28.0565 7.01413 2.715 1.00019e-19 -3.54022
489 1 30.6868 3.94545 -2.7075 7.99993e-20 -3.54022
490 1 30.2484 5.69898 -0.9 7.99787e-20 -3.54022
491 1 29.8101 7.45251 0.9075 6.99727e-20 -3.54022
492 1 29.3717 9.20605 2.715 2.00014e-20 -3.54022
493 1 32.002 6.13736 -2.7075 8.00192e-20 -3.54022
494 1 31.5636 7.8909 -0.9 9.99993e-20 -3.54022
495 1 31.1252 9.64443 0.9075 9.00267e-20 -3.54022
496 1 30.6868 11.398 2.715 1.00009e-19 -3.54022
497 1 33.3171 8.32928 -2.7075 4.00526e-20 -3.54022
498 1 32.8787 10.0828 -0.9 7.00423e-20 -3.54022
499 1 32.4404 11.8363 0.9075 8.00249e-20 -3.54022
500 1 32.002 13.5899 2.715 4.00353e-09 -3.54022
501 1 34.6323 10.5212 -2.7075 7.99674e-20 -3.54022
502 1 34.1939 12.2747 -0.9 7.9983e-20 -3.54022
503 1 33.7555 14.0283 0.9075 4.00356e-09 -3.54022
504 1 35.9474 12.7131 -2.7075 1.00088e-09 -3.54022
505 1 35.509 14.4666 -0.9 6.0053e-09 -3.54022
506 1 18.4121 -14.0283 2.715 4.00353e-09 -3.54022
507 1 20.1656 -13.5899 0.9075 3.00267e-09 -3.54022
508 1 19.7272 -11.8363 2.715 5.00011e-20 -3.54022
509 1 22.3575 -14.905 -2.7075 6.0053e-09 -3.54022
510 1 21.9192 -13.1515 -0.9 1.00089e-09 -3.54022
511 1 21.4808 -11.398 0.9075 4.00178e-20 -3.54022
512 1 21.0424 -9.64443 2.715 7.00416e-20 -3.54022
513 1 23.6727 -12.7131 -2.7075 9.00032e-20 -3.54022
514 1 23.2343 -10.9596 -0.9 1.00012e-19 -3.54022
515 1 22.7959 -9.20605 0.9075 7.99979e-20 -3.54022
516 1 22.3575 -7.45251 2.715 7.00199e-20 -3.54022
517 1 24.9878 -10.5212 -2.7075 7.00032e-20 -3.54022
518 1 24.5495 -8.76766 -0.9 8.00029e-20 -3.54022
519 1 24.1111 -7.01413 0.9075 8.0011e-20 -3.54022
520 1 23.6727 -5.2606 2.715 7.99855e-20 -3.54022
521 1 26.303 -8.32928 -2.7075 7.00238e-20 -3.54022
522 1 25.8646 -6.57575 -0.9 7.00082e-20 -3.54022
523 1 25.4262 -4.82221 0.9075 5.00046e-20 -3.54022
524 1 24.9878 -3.06868 2.715 4.00011e-20 -3.54022
525 1 27.6181 -6.13736 -2.7075 1.00054e-19 -3.54022
526 1 27.1798 -4.38383 -0.9 1.00051e-19 -3.54022
527 1 26.7414 -2.6303 0.9075 8.00043e-20 -3.54022
528 1 26.303 -0.876766 2.715 7.99947e-20 -3.54022
529 1 28.9333 -3.94545 -2.7075 6.00135e-20 -3.54022
530 1 28.4949 -2.19191 -0.9 7.99968e-20 -3.54022
531 1 28.0565 -0.438382 0.9075 7.99656e-20 -3.54022
532 1 27.6181 1.31515 2.715 6.99954e-20 -3.54022
533 1 30.2484 -1.75353 -2.7075 9.9968e-20 -3.54022
534 1 29.8101 7.971e-07 -0.9 5.9995e-20 -3.54022
535 1 29.3717 1.75353 0.9075 5.00224e-20 -3.54022
536 1 28.9333 3.50707 2.715 5.00018e-20 -3.54022
537 1 31.5636 0.438384 -2.7075 6.99983e-20 -3.54022
538 1 31.1252 2.19192 -0.9 9.9983e-20 -3.54022
539 1 30.6868 3.94545 0.9075 7.99993e-20 -3.54022
540 1 30.2484 5.69898 2.715 7.99787e-20 -3.54022
541 1 32.8787 2.6303 -2.7075 8.99144e-20 -3.54022
542 1 32.4404 4.38383 -0.9 6.99769e-20 -3.54022
543 1 32.002 6.13736 0.9075 8.00192e-20 -3.54022
544 1 31.5636 7.8909 2.715 9.99993e-20 -3.54022
545 1 34.1939 4.82222 -2.7075 5.00025e-20 -3.54022
546 1 33.7555 6.57575 -0.9 7.00352e-20 -3.54022
547 1 33.3171 8.32928 0.9075 4.00526e-20 -3.54022
548 1 32.8787 10.0828 2.715 7.00423e-20 -3.54022
549 1 35.509 7.01413 -2.7075 1.20031e-19 -3.54022
550 1 35.0707 8.76766 -0.9 9.00089e-20 -3.54022
551 1 34.6323 10.5212 0.9075 7.99674e-20 -3.54022
552 1 34.1939 12.2747 2.715 7.9983e-20 -3.54022
553 1 36.8242 9.20605 -2.7075 2.99904e-20 -3.54022
554 1 36.3858 10.9596 -0.9 1.00035e-19 -3.54022
555 1 35.9474 12.7131 0.9075 1.00088e-09 -3.54022
556 1 35.509 14.4666 2.715 6.0053e-09 -3.54022
557 1 38.1393 11.398 -2.7075 9.99418e-20 -3.54022
558 1 37.7009 13.1515 -0.9 3.00267e-09 -3.54022
559 1 39.4545 13.5899 -2.7075 4.00353e-09 -3.54022
560 1 22.3575 -14.905 0.9075 6.0053e-09 -3.54022
561 1 21.9192 -13.1515 2.715 1.00089e-09 -3.54022
562 1 24.1111 -14.4666 -0.9 4.00357e-09 -3.54022
563 1 23.6727 -12.7131 0.9075 9.00032e-20 -3.54022
564 1 23.2343 -10.9596 2.715 1.00012e-19 -3.54022
565 1 25.8646 -14.0283 -2.7075 4.00355e-09 -3.54022
566 1 25.4262 -12.2747 -0.9 1.00061e-20 -3.54022
567 1 24.9878 -10.5212 0.9075 7.00032e-20 -3.54022
568 1 24.5495 -8.76766 2.715 8.00029e-20 -3.54022
569 1 27.1798 -11.8363 -2.7075 7.00039e-20 -3.54022
570 1 26.7414 -10.0828 -0.9 9.99851e-20 -3.54022
571 1 26.303 -8.32928 0.9075 7.00238e-20 -3.54022
572 1 25.8646 -6.57575 2.715 7.00082e-20 -3.54022
573 1 28.4949 -9.64443 -2.7075 1.00065e-19 -3.54022
574 1 28.0565 -7.8909 -0.9 5.00011e-20 -3.54022
575 1 27.6181 -6.13736 0.9075 1.00054e-19 -3.54022
576 1 27.1798 -4.38383 2.715 1.00051e-19 -3.54022
577 1 29.8101 -7.45251 -2.7075 3.99958e-20 -3.54022
578 1 29.3717 -5.69898 -0.9 6.00135e-20 -3.54022
579 1 28.9333 -3.94545 0.9075 6.00135e-20 -3.54022
580 1 28.4949 -2.19191 2.715 7.99968e-20 -3.54022
581 1 31.1252 -5.2606 -2.7075 1.19989e-19 -3.54022
582 1 30.6868 -3.50706 -0.9 3.99886e-20 -3.54022
583 1 30.2484 -1.75353 0.9075 9.9968e-20 -3.54022
584 1 29.8101 7.971e-07 2.715 5.9995e-20 -3.54022
585 1 32.4404 -3.06868 -2.7075 7.00032e-20 -3.54022
586 1 32.002 -1.31515 -0.9 9.99975e-20 -3.54022
587 1 31.5636 0.438384 0.9075 6.99983e-20 -3.54022
588 1 31.1252 2.19192 2.715 9.9983e-20 -3.54022
589 1 33.7555 -0.876765 -2.7075 5.00245e-20 -3.54022
590 1 33.3171 0.876767 -0.9 2.00061e-20 -3.54022
591 1 32.8787 2.6303 0.9075 8.99144e-20 -3.54022
592 1 32.4404 4.38383 2.715 6.99769e-20 -3.54022
593 1 35.0707 1.31515 -2.7075 6.99929e-20 -3.54022
594 1 34.6323 3.06868 -0.9 9.99869e-20 -3.54022
595 1 34.1939 4.82222 0.9075 5.00025e-20 -3.54022
596 1 33.7555 6.57575 2.715 7.00352e-20 -3.54022
597 1 36.3858 3.50707 -2.7075 7.99993e-20 -3.54022
598 1 35.9474 5.2606 -0.9 5.00274e-20 -3.54022
599 1 35.509 7.01413 0.9075 1.20031e-19 -3.54022
600 1 35.0707 8.76766 2.715 9.00089e-20 -3.54022
601 1 37.701 5.69898 -2.7075 4.00185e-20 -3.54022
602 1 37.2626 7.45251 -0.9 6.99847e-20 -3.54022