LAMMPS data file via write_data, version 29 Aug 2024, timestep = 1047, units = metal

3656 atoms
2 atom types

-100.1 100.1 xlo xhi
-14.90504265 14.90504265 ylo yhi
-3.615 3.615 zlo zhi
0 0 0 xy xz yz

Masses

1 63.55
2 63.55

Atoms # atomic

1 2 -0.2897222449404353 -14.625240627117925 -3.1682002190661716 0 0 1
2 2 -0.2897222449797283 7.73232334783466 -1.3607002190617354 0 0 0
3 2 0.8779025779437006 11.172740205945507 -1.3607002190086277 0 0 0
4 2 0.877902577928964 12.99982272274754 0.44679978097585993 0 0 0
5 2 0.8779025779201817 12.999822722759918 -3.168200219024043 0 0 1
6 1 2.756542871299388 11.51396153185266 -3.1682002189948544 0 0 0
7 1 2.420227114379344 13.390399807641414 -1.3607002189855602 0 0 0
8 1 4.116021268414443 13.776519529880646 -3.168200218982384 0 0 0
9 2 0.8779025779163163 5.547301397726711 -1.360700219033849 0 0 0
10 2 0.8779025779178227 5.54730139772858 2.2542997809660967 0 0 0
11 2 -0.28972224497545085 7.732323347833487 2.254299780938158 0 0 0
12 1 2.420227114363314 5.937878482621484 -3.168200218989593 0 0 0
13 1 2.045527400727366 7.732323348048025 -1.3607002189695532 0 0 0
14 2 0.877902577836636 9.319098716257434 0.446799780998784 0 0 0
15 2 0.8779025779436296 11.172740205945912 2.254299780989564 0 0 0
16 1 3.6494116777998755 8.173516750605364 -3.1682002189680367 0 0 0
17 1 3.1110312372500317 9.891289180871995 -1.3607002189856479 0 0 0
18 1 2.7565428712931066 11.513961531857793 0.44679978100572404 0 0 0
19 1 2.4202271143793013 13.390399807641371 2.25429978101037 0 0 0
20 1 4.9641730312677055 10.30505373723872 -3.168200218965028 0 0 0
21 1 4.530615397194737 12.025583934990363 -1.3607002189778943 0 0 0
22 1 4.1160212684095825 13.776519529884146 0.4467997810173743 0 0 0
23 1 6.28844305101876 12.485583098603167 -3.168200218958846 0 0 0
24 1 5.824424794882219 14.249667425152778 -1.3607002189637405 0 0 0
25 2 0.8779025778806471 -1.9052199272038397 -3.168200219032218 0 0 1
26 2 -0.28972224501855237 0.2798020228716229 0.44679978092129374 0 0 0
27 1 2.0455274006912845 0.27980202312503444 -3.168200218983077 0 0 0
28 2 0.8779025777539715 1.8665773912783212 -1.3607002190168433 0 0 0
29 2 0.8779025779215175 3.7202188809333148 0.4467997809800138 0 0 0
30 2 0.8779025778368066 9.319098716256937 -3.168200219001977 0 0 1
31 1 3.111031237257663 2.4387678559133814 -3.168200218998444 0 0 0
32 1 2.7565428712897386 4.061440206874861 -1.3607002190097077 0 0 0
33 1 2.4202271143636978 5.937878482621747 0.4467997810112963 0 0 0
34 1 2.0455274007226905 7.732323348046007 2.2542997810305923 0 0 0
35 1 4.530615397214433 4.573062610012494 -3.1682002189882468 0 0 0
36 1 4.116021268424532 6.3239982048794925 -1.3607002189894475 0 0 0
37 1 3.649411677799705 8.173516750605105 0.4467997810299926 0 0 0
38 1 3.111031237249989 9.891289180874269 2.2542997810161416 0 0 0
39 1 5.824424794915572 6.797146100150362 -3.1682002189653367 0 0 0
40 1 5.372807758808506 8.560804296136139 -1.3607002189601973 0 0 0
41 1 4.964173031269482 10.305053737237754 0.4467997810351844 0 0 0
42 1 4.53061539719431 12.025583934990108 2.254299781023819 0 0 0
43 1 7.144789362057608 8.982862683749728 -3.1682002189425154 0 0 0
44 1 6.722980802471199 10.732998954748942 -1.3607002189436017 0 0 0
45 1 6.288443051020266 12.485583098602378 0.4467997810411548 0 0 0
46 1 5.824424794882077 14.249667425152685 2.2542997810371705 0 0 0
47 1 8.471667167709256 11.17312949969696 -3.168200218924402 0 0 0
48 1 8.026421343742541 12.933418101700221 -1.360700218935268 0 0 0
49 1 9.776258354511114 13.370751157412675 -3.168200218912999 0 0 0
50 2 -0.2897222449903438 -7.172719302065794 -1.3607002190813244 0 0 0
51 2 0.8779025779132752 -3.732302443994639 -1.3607002190390747 0 0 0
52 2 0.8779025778849103 -1.9052199272107622 0.4467997809677543 0 0 0
53 2 -0.28972224500267885 0.2798020228656526 -3.168200219078793 0 0 1
54 2 0.8779025779214749 3.7202188809327037 -3.1682002190204024 0 0 1
55 1 2.7565428712851485 -3.3910811180806153 -3.1682002190194214 0 0 0
56 1 2.4202271143535796 -1.5146428423043243 -1.360700219021746 0 0 0
57 1 2.045527400706689 0.2798020231287772 0.4467997810167233 0 0 0
58 2 0.8779025777541705 1.8665773912770494 2.254299780983105 0 0 0
59 1 4.1160212683920605 -1.1285231200613133 -3.1682002190000693 0 0 0
60 1 3.649411677775319 0.7209954256625366 -1.3607002189863586 0 0 0
61 1 3.111031237256128 2.438767855907942 0.44679978100089585 0 0 0
62 1 2.7565428712898523 4.061440206874424 2.2542997809918655 0 0 0
63 1 5.372807758802949 1.1082829711811737 -3.1682002189764504 0 0 0
64 1 4.964173031284915 2.852532412273197 -1.3607002189821193 0 0 0
65 1 4.530615397215001 4.573062610013116 0.4467997810119577 0 0 0
66 1 4.116021268424646 6.3239982048785155 2.2542997810105723 0 0 0
67 1 6.722980802491776 3.280477629775705 -3.1682002189580167 0 0 0
68 1 6.288443051049299 5.033061773620295 -1.3607002189698012 0 0 0
69 1 5.824424794915217 6.797146100150146 0.44679978103477663 0 0 0
70 1 5.3728077588088325 8.560804296136086 2.254299781039474 0 0 0
71 1 8.026421343787462 5.480896776711402 -3.168200218941614 0 0 0
72 1 7.576976697012782 7.236026554826855 -1.3607002189419029 0 0 0
73 1 7.144789362057338 8.982862683750005 0.44679978105751045 0 0 0
74 1 6.7229808024711275 10.732998954748693 2.2542997810557046 0 0 0
75 1 9.33877430563389 7.669965170404412 -3.168200218920497 0 0 0
76 1 8.906200528284074 9.419456251751482 -1.3607002189178763 0 0 0
77 1 8.471667167709015 11.173129499697174 0.44679978107555335 0 0 0
78 1 8.026421343742541 12.93341810170019 2.2542997810644674 0 0 0
79 1 10.659476307924976 9.859632902581241 -3.168200218892967 0 0 0
80 1 10.218698105931736 11.615168930413363 -1.360700218894903 0 0 0
81 1 9.776258354511072 13.370751157412771 0.4467997810869451 0 0 0
82 1 11.970385764126746 12.053941286823234 -3.1682002188807483 0 0 0
83 1 11.531902987811051 13.80702576957381 -1.360700218890653 0 0 0
84 1 13.287039397560278 14.244547157066789 -3.168200218874501 0 0 0
85 2 0.8779025779082303 -9.35774125217567 -1.3607002190352373 0 0 0
86 2 0.8779025779110015 -9.357741252171092 2.2542997809654604 0 0 0
87 2 -0.28972224498069465 -7.172719302067953 2.2542997809183336 0 0 0
88 1 2.4202271143680036 -8.967164167290065 -3.1682002190159966 0 0 0
89 1 2.045527400709801 -7.172719301850882 -1.3607002189894504 0 0 0
90 2 0.8779025777585332 -5.585943933657669 0.4467997809735337 0 0 0
91 2 0.8779025779135594 -3.732302443995099 2.2542997809597587 0 0 0
92 1 3.6494116777625862 -6.731525899303348 -3.168200218991649 0 0 0
93 1 3.111031237226655 -5.013753469040482 -1.3607002190133095 0 0 0
94 1 2.756542871282093 -3.3910811180777216 0.4467997809815398 0 0 0
95 1 2.4202271143534944 -1.5146428423045784 2.2542997809762824 0 0 0
96 1 4.964173031248393 -4.599988912683456 -3.168200218991171 0 0 0
97 1 4.530615397180824 -2.8794587149384068 -1.3607002190056703 0 0 0
98 1 4.116021268389616 -1.1285231200593753 0.44679978100006584 0 0 0
99 1 3.649411677774978 0.7209954256628084 2.2542997810076812 0 0 0
100 1 6.288443051013559 -2.419459551333391 -3.1682002189823057 0 0 0
101 1 5.824424794888699 -0.6553752248001619 -1.3607002189839674 0 0 0
102 1 5.3728077588016845 1.108282971181099 0.4467997810234081 0 0 0
103 1 4.964173031285114 2.852532412273172 2.2542997810180863 0 0 0
104 1 7.576976696992446 -0.21649477013231255 -3.16820021895687 0 0 0
105 1 7.144789362059697 1.530341358786698 -1.3607002189592092 0 0 0
106 1 6.722980802491904 3.2804776297759393 0.44679978104191415 0 0 0
107 1 6.288443051049072 5.033061773620373 2.254299781029951 0 0 0
108 1 8.906200528300303 1.9669349267806755 -3.168200218931448 0 0 0
109 1 8.471667167744044 3.7206081747187394 -1.3607002189357582 0 0 0
110 1 8.026421343787504 5.480896776711399 0.44679978105847773 0 0 0
111 1 7.57697669701281 7.23602655482714 2.2542997810580534 0 0 0
112 1 10.21869810598028 4.162647605423855 -3.1682002189029292 0 0 0
113 1 9.776258354568569 5.91822983241631 -1.3607002189167414 0 0 0
114 1 9.33877430563409 7.669965170404401 0.44679978107946083 0 0 0
115 1 8.906200528283918 9.4194562517516 2.254299781082165 0 0 0
116 1 11.531902987877558 6.354504444567281 -3.1682002188936043 0 0 0
117 1 11.096037871715538 8.106588176857853 -1.3607002188939614 0 0 0
118 1 10.659476307924976 9.859632902581295 0.44679978110719143 0 0 0
119 1 10.218698105931736 11.615168930413445 2.2542997811053094 0 0 0
120 1 12.849654792755672 8.545273488908093 -3.1682002188791354 0 0 0
121 1 12.410609344921156 10.299549422697678 -1.360700218874488 0 0 0
122 1 11.97038576412666 12.053941286823322 0.44679978111925267 0 0 0
123 1 11.53190298781125 13.807025769573938 2.254299781109509 0 0 0
124 1 14.163129291970534 10.73818036173767 -3.168200218871022 0 0 0
125 1 13.724505848430354 12.491643060467764 -1.3607002188718207 0 0 0
126 1 13.287039397560193 14.244547157066746 0.44679978112548313 0 0 0
127 1 15.478658054281937 12.92961085504482 -3.1682002188636935 0 0 0
128 2 -0.2897222449694965 -14.625240627106363 0.44679978093406536 0 0 0
129 1 2.0455274007245805 -14.625240626929145 -3.1682002189723186 0 1 0
130 2 0.8779025778551102 -13.038465258675581 -1.3607002190137518 0 0 0
131 2 0.8779025779379026 -11.184823768976862 0.4467997809695427 0 0 0
132 2 0.8779025777587748 -5.5859439336578 -3.1682002190260357 0 0 1
133 1 3.1110312372188815 -12.46627479407771 -3.1682002189996594 0 0 0
134 1 2.756542871282278 -10.84360244309269 -1.3607002190113056 0 0 0
135 1 2.4202271143676484 -8.967164167290061 0.44679978098558853 0 0 0
136 1 2.0455274006997115 -7.1727193018544595 2.254299781010534 0 0 0
137 1 4.530615397163615 -10.331980039962637 -3.168200218996812 0 0 0
138 1 4.116021268382283 -8.581044445056156 -1.3607002189994173 0 0 0
139 1 3.649411677762558 -6.7315258993037315 0.44679978100423984 0 0 0
140 1 3.1110312372277207 -5.013753469036013 2.254299780987329 0 0 0
141 1 5.824424794852192 -8.107896549796044 -3.1682002189833267 0 0 0
142 1 5.372807758764893 -6.344238353793413 -1.3607002189835757 0 0 0
143 1 4.964173031249416 -4.599988912684067 0.4467997810090408 0 0 0
144 1 4.530615397180398 -2.8794587149390445 2.2542997809953693 0 0 0
145 1 7.144789362013682 -5.922179966197016 -3.1682002189658935 0 0 0
146 1 6.722980802452838 -4.172043695189821 -1.360700218969763 0 0 0
147 1 6.288443051014397 -2.4194595513338513 0.4467997810177074 0 0 0
148 1 5.824424794888969 -0.6553752247998297 2.2542997810165324 0 0 0
149 1 8.471667167694633 -3.731913150256446 -3.168200218946669 0 0 0
150 1 8.02642134374861 -1.9716245482517234 -1.3607002189558612 0 0 0
151 1 7.576976696992645 -0.21649477013251328 0.4467997810426936 0 0 0
152 1 7.144789362059939 1.5303413587865489 2.254299781040956 0 0 0
153 1 9.776258354531649 -1.5342914925543205 -3.168200218929386 0 0 0
154 1 9.338774305624156 0.21744384543531403 -1.3607002189344257 0 0 0
155 1 8.906200528300502 1.966934926780615 0.4467997810683853 0 0 0
156 1 8.471667167743846 3.720608174718551 2.25429978106421 0 0 0
157 1 11.096037871718252 0.6540668518752195 -3.1682002189058083 0 0 0
158 1 10.659476307954648 2.407111577596252 -1.3607002189036435 0 0 0
159 1 10.218698105980366 4.1626476054238015 0.4467997810971112 0 0 0
160 1 9.776258354568654 5.9182298324163565 2.254299781083398 0 0 0
161 1 12.410609344966716 2.8470280976966773 -3.1682002188836496 0 0 0
162 1 11.970385764186474 4.6014199618196 -1.3607002188869322 0 0 0
163 1 11.531902987877558 6.354504444567231 0.446799781106351 0 0 0
164 1 11.096037871715495 8.106588176857832 2.254299781106217 0 0 0
165 1 13.72450584849706 5.039121735453071 -3.16820021887615 0 0 0
166 1 13.287039397630863 6.792025832052209 -1.3607002188762904 0 0 0
167 1 12.849654792755558 8.545273488908043 0.44679978112085 0 0 0
168 1 12.410609344921198 10.299549422697561 2.2542997811253893 0 0 0
169 1 15.0407489487215 7.230446666229154 -3.1682002188620144 0 0 0
170 1 14.602237318194653 8.984223016198895 -1.3607002188660726 0 0 0
171 1 14.163129291970534 10.738180361737607 0.4467997811290327 0 0 0
172 1 13.72450584843044 12.491643060467814 2.2542997811282026 0 0 0
173 1 16.355249113563474 9.42275038188898 -3.1682002188611276 0 0 0
174 1 15.916711237703879 11.176310068543982 -1.3607002188666337 0 0 0
175 1 15.478658054281937 12.929610855044826 0.44679978113642305 0 0 0
176 1 17.67043319439584 11.61449522951055 -3.16820021885531 0 0 0
177 1 17.23227446213251 13.367944017789911 -1.3607002188579533 0 0 0
178 1 18.98563001168344 13.806380456595226 -3.1682002188472795 0 0 0
179 2 0.8779025779378742 -11.184823768977386 -3.168200219029219 0 0 1
180 1 2.045527400752718 -14.62524062692179 0.44679978102744405 0 1 0
181 2 0.8779025778553091 -13.038465258674448 2.254299780987244 0 0 0
182 1 3.649411677783405 -14.184047224362223 -1.3607002189695085 0 0 0
183 1 3.1110312372168494 -12.466274794087523 0.4467997810009007 0 0 0
184 1 2.756542871282278 -10.843602443092207 2.2542997809913063 0 0 0
185 1 5.372807758774471 -13.796759678840878 -3.168200218966992 0 0 0
186 1 4.964173031234864 -12.052510237723382 -1.3607002189784012 0 0 0
187 1 4.530615397164709 -10.331980039961305 0.44679978100378714 0 0 0
188 1 4.116021268383108 -8.581044445057344 2.254299781000089 0 0 0
189 1 6.722980802428452 -11.624565020218588 -3.1682002189592224 0 0 0
190 1 6.288443050981101 -9.871980876352744 -1.360700218976203 0 0 0
191 1 5.824424794852121 -8.10789654979629 0.4467997810168694 0 0 0
192 1 5.3728077587660295 -6.344238353793051 2.2542997810162553 0 0 0
193 1 8.026421343701486 -9.424145873258492 -3.1682002189531335 0 0 0
194 1 7.576976696941173 -7.669016095129805 -1.360700218960341 0 0 0
195 1 7.144789362013626 -5.922179966196849 0.4467997810343801 0 0 0
196 1 6.722980802453037 -4.172043695189794 2.254299781030008 0 0 0
197 1 9.338774305568393 -7.235077479558328 -3.1682002189389085 0 0 0
198 1 8.906200528245648 -5.485586398205859 -1.360700218941229 0 0 0
199 1 8.471667167694363 -3.731913150256336 0.4467997810532618 0 0 0
200 1 8.02642134374861 -1.9716245482513504 2.25429978104397 0 0 0
201 1 10.659476307897748 -5.045409747385245 -3.1682002189127445 0 0 0
202 1 10.2186981059278 -3.2898737195523626 -1.3607002189148878 0 0 0
203 1 9.776258354531564 -1.5342914925542512 0.44679978107039686 0 0 0
204 1 9.338774305623886 0.2174438454354206 2.2542997810655496 0 0 0
205 1 11.970385764138683 -2.8511013631542443 -3.1682002188978506 0 0 0
206 1 11.531902987851709 -1.0980168804102757 -1.3607002189059696 0 0 0
207 1 11.096037871718295 0.6540668518751271 0.4467997810942673 0 0 0
208 1 10.659476307954364 2.4071115775961065 2.2542997810963175 0 0 0
209 1 13.287039397626828 -0.660495492936203 -3.168200218887862 0 0 0
210 1 12.849654792779504 1.0927521639106015 -1.3607002188903998 0 0 0
211 1 12.410609344966716 2.847028097696599 0.44679978111647056 0 0 0
212 1 11.970385764186517 4.601419961819699 2.254299781113078 0 0 0
213 1 14.60223731823946 1.5317016911881094 -3.1682002188768057 0 0 0
214 1 14.163129292029197 3.285659036723688 -1.360700218878833 0 0 0
215 1 13.724505848496989 5.039121735453099 0.44679978112374696 0 0 0
216 1 13.287039397630707 6.792025832052202 2.2542997811236525 0 0 0
217 1 15.916711237770798 3.723788743522933 -3.168200218873783 0 0 0
218 1 15.478658054351996 5.477089530024029 -1.36070021886642 0 0 0
219 1 15.040748948721543 7.230446666229222 0.44679978113810387 0 0 0
220 1 14.602237318194767 8.98422301619881 2.2542997811338017 0 0 0
221 1 17.232274462202994 5.915422692764809 -3.1682002188594542 0 0 0
222 1 16.79390586024843 7.669031952343252 -1.3607002188570085 0 0 0
223 1 16.355249113563474 9.42275038188898 0.4467997811387982 0 0 0
224 1 15.916711237704149 11.176310068543883 2.2542997811334313 0 0 0
225 1 18.547158591301113 8.107474406290505 -3.168200218844927 0 0 0
226 1 18.108699217846834 9.861041734676531 -1.360700218853083 0 0 0
227 1 17.670433194395798 11.614495229510586 0.44679978114448365 0 0 0
228 1 17.23227446213251 13.36794401778977 2.254299781142075 0 0 0
229 1 19.86224779939849 10.299325929335447 -3.16820021883814 0 0 0
230 1 19.42397195856266 12.052823526380456 -1.3607002188466917 0 0 0
231 1 18.985630011683327 13.806380456595116 0.4467997811527522 0 0 0
232 1 21.17739380869598 12.491205120911976 -3.1682002188192766 0 0 0
233 1 20.738993731684687 14.24477590404504 -1.3607002188271657 0 0 0
234 1 3.6494116777832915 -14.184047224362601 2.254299781019637 0 0 0
235 1 5.372807758772254 -13.796759678841077 0.44679978103301954 0 0 0
236 1 4.964173031234523 -12.052510237723283 2.254299781021947 0 0 0
237 1 7.576976696962134 14.688547879830095 -3.1682002189425105 0 0 0
238 1 7.144789362009021 -13.37470129123246 -1.3607002189503543 0 0 0
239 1 6.722980802428765 -11.62456502021822 0.4467997810409734 0 0 0
240 1 6.2884430509808595 -9.871980876352426 2.2542997810234797 0 0 0
241 1 8.906200528226904 -12.938107723228628 -3.168200218927129 0 0 0
242 1 8.471667167658069 -11.184434475270175 -1.3607002189378452 0 0 0
243 1 8.026421343701486 -9.424145873258487 0.4467997810465722 0 0 0
244 1 7.576976696941216 -7.669016095129717 2.2542997810397583 0 0 0
245 1 10.218698105879568 -10.742395044554927 -3.1682002189077934 0 0 0
246 1 9.776258354478216 -8.986812817552245 -1.3607002189292352 0 0 0
247 1 9.338774305568478 -7.235077479558369 0.4467997810610142 0 0 0
248 1 8.906200528245776 -5.485586398205857 2.2542997810588616 0 0 0
249 1 11.531902987794496 -8.550538205401981 -3.1682002189052385 0 0 0
250 1 11.096037871661679 -6.798454473111166 -1.3607002189115749 0 0 0
251 1 10.659476307897734 -5.045409747385284 0.4467997810871747 0 0 0
252 1 10.218698105927686 -3.289873719552517 2.254299781085176 0 0 0
253 1 12.849654792717956 -6.359769161070272 -3.16820021889462 0 0 0
254 1 12.41060934490821 -4.605493227278059 -1.3607002188920758 0 0 0
255 1 11.970385764138612 -2.8511013631542266 0.4467997811022292 0 0 0
256 1 11.531902987851637 -1.0980168804103592 2.254299781094219 0 0 0
257 1 14.163129291974471 -4.166862288253855 -3.1682002188869918 0 0 0
258 1 13.724505848464702 -2.413399589526966 -1.3607002188871316 0 0 0
259 1 13.287039397626799 -0.6604954929362759 0.4467997811121882 0 0 0
260 1 12.849654792779589 1.092752163910287 2.254299781109692 0 0 0
261 1 15.478658054342702 -1.975431794975174 -3.168200218877439 0 0 0
262 1 15.04074894874232 -0.2220746587754885 -1.360700218874368 0 0 0
263 1 14.60223731823946 1.5317016911880739 0.4467997811232228 0 0 0
264 1 14.163129292029097 3.2856590367236382 2.254299781121094 0 0 0
265 1 16.793905860290394 0.21651062731798199 -3.168200218869857 0 0 0
266 1 16.35524911362222 1.970229056866243 -1.3607002188721193 0 0 0
267 1 15.916711237770755 3.723788743522933 0.44679978112639585 0 0 0
268 1 15.478658054351811 5.477089530024118 2.254299781133669 0 0 0
269 1 18.108699217910214 2.4085204096414987 -3.1682002188654668 0 0 0
270 1 17.670433194465744 4.161973904482123 -1.3607002188614825 0 0 0
271 1 17.23227446220291 5.915422692764926 0.44679978114080093 0 0 0
272 1 16.7939058602487 7.6690319523432695 2.254299781143122 0 0 0
273 1 19.423971958629096 4.600302201343366 -3.1682002188540976 0 0 0
274 1 18.985630011748157 6.353859131568052 -1.3607002188471908 0 0 0
275 1 18.547158591301 8.107474406290551 0.4467997811549451 0 0 0
276 1 18.108699217847047 9.861041734676595 2.2542997811470378 0 0 0
277 1 20.738993731729877 6.7922545790235045 -3.1682002188276988 0 0 0
278 1 20.300584208518032 8.545814023989733 -1.360700218830474 0 0 0
279 1 19.86224779939846 10.299325929335387 0.44679978116168934 0 0 0
280 1 19.423971958562547 12.052823526380523 2.2542997811531658 0 0 0
281 1 22.054065391102853 8.984140096743216 -3.1682002188067977 0 0 0
282 1 21.615738631685474 10.737662389862768 -1.3607002188140145 0 0 0
283 1 21.177393808696053 12.49120512091199 0.44679978118081987 0 0 0
284 1 20.73899373168456 14.244775904045126 2.2542997811726333 0 0 0
285 1 23.369179797107947 11.176024337098172 -3.1682002187811915 0 0 0
286 1 22.93080594652278 12.929577125367652 -1.360700218792725 0 0 0
287 1 24.684241214612058 13.367932243854389 -3.168200218764713 0 0 0
288 1 7.576976696962532 14.688547879829875 0.4467997810578131 0 0 0
289 1 7.144789362009064 -13.374701291232451 2.254299781050015 0 0 0
290 1 9.338774305574233 -14.687598804588688 -1.3607002189224107 0 0 0
291 1 8.906200528227046 -12.938107723228743 0.44679978107310675 0 0 0
292 1 8.471667167658183 -11.184434475269999 2.2542997810621856 0 0 0
293 1 11.09603787164815 -14.250975798129428 -3.16820021889622 0 0 0
294 1 10.659476307861766 -12.49793107239597 -1.3607002189003916 0 0 0
295 1 10.218698105879412 -10.7423950445549 0.44679978109210483 0 0 0
296 1 9.776258354478173 -8.986812817551964 2.254299781070962 0 0 0
297 1 12.410609344857377 -12.058014552278738 -3.1682002188806706 0 0 0
298 1 11.970385764081271 -10.303622688151377 -1.3607002188917134 0 0 0
299 1 11.531902987794382 -8.550538205402002 0.4467997810948597 0 0 0
300 1 11.096037871661778 -6.798454473111024 2.2542997810884726 0 0 0
301 1 13.724505848402018 -9.865920914517105 -3.1682002188810414 0 0 0
302 1 13.287039397563746 -8.113016817924086 -1.3607002188869501 0 0 0
303 1 12.849654792717928 -6.359769161070362 0.4467997811052345 0 0 0
304 1 12.410609344908167 -4.605493227277972 2.2542997811077647 0 0 0
305 1 15.040748948676779 -7.674595983757649 -3.168200218872873 0 0 0
306 1 14.602237318174758 -5.920819633792023 -1.3607002188797754 0 0 0
307 1 14.163129291974471 -4.166862288253833 0.44679978111287366 0 0 0
308 1 13.724505848464602 -2.4133995895268203 2.25429978111287 0 0 0
309 1 16.355249113564653 -5.482292268119226 -3.168200218874905 0 0 0
310 1 15.91671123773186 -3.7287325814695915 -1.360700218880701 0 0 0
311 1 15.47865805434266 -1.9754317949752185 0.4467997811224851 0 0 0
312 1 15.04074894874232 -0.22207465877559862 2.2542997811256913 0 0 0
313 1 17.67043319445183 -3.2905474205290908 -3.168200218869395 0 0 0
314 1 17.2322744622182 -1.5370986322569102 -1.360700218871382 0 0 0
315 1 16.793905860290323 0.21651062731791804 0.4467997811300272 0 0 0
316 1 16.355249113622065 1.970229056866179 2.254299781127727 0 0 0
317 1 18.98563001178519 -1.0986621934710232 -3.168200218861335 0 0 0
318 1 18.5471585913549 0.6549530812492961 -1.3607002188597659 0 0 0
319 1 18.1086992179102 2.4085204096414454 0.44679978113474783 0 0 0
320 1 17.67043319446563 4.161973904482293 2.2542997811385184 0 0 0
321 1 20.30058420857904 1.0932926989384182 -3.1682002188476477 0 0 0
322 1 19.862247799463518 2.8468046042905097 -1.360700218851426 0 0 0
323 1 19.42397195862914 4.6003022013433235 0.4467997811459815 0 0 0
324 1 18.985630011748583 6.353859131568145 2.2542997811527243 0 0 0
325 1 21.6157386317456 3.285141064814697 -3.1682002188276455 0 0 0
326 1 21.177393808749642 5.038683795875398 -1.3607002188269883 0 0 0
327 1 20.73899373172992 6.79225457902359 0.44679978117194696 0 0 0
328 1 20.300584208518103 8.545814023989825 2.2542997811695584 0 0 0
329 1 22.930805946552965 5.477055800343903 -3.1682002187998672 0 0 0
330 1 22.492422586260176 7.230607391431535 -1.3607002188068524 0 0 0
331 1 22.054065391102895 8.98414009674323 0.4467997811930786 0 0 0
332 1 21.615738631685204 10.737662389862704 2.254299781185922 0 0 0
333 1 24.245879121179144 7.668950510130811 -3.168200218778517 0 0 0
334 1 23.807531164559492 9.422484185571433 -1.3607002187799166 0 0 0
335 1 23.36917979710806 11.176024337098108 0.4467997812188827 0 0 0
336 1 22.93080594652274 12.929577125367777 2.254299781207237 0 0 0
337 1 25.560976818174353 9.860839686686672 -3.168200218747528 0 0 0
338 1 25.12261199868837 11.614385502085097 -1.3607002187517498 0 0 0
339 1 24.684241214612186 13.367932243854435 0.4467997812351894 0 0 0
340 1 26.876051826348686 12.052740311105387 -3.1682002187166685 0 0 0
341 1 26.437689274661736 13.806281937176243 -1.3607002187315773 0 0 0
342 1 28.191137701668453 14.244633140379888 -3.1682002186927085 0 0 0
343 1 9.338774305574432 -14.68759880458857 2.2542997810775507 0 0 0
344 1 11.096037871648264 -14.250975798129446 0.44679978110367885 0 0 0
345 1 10.659476307861837 -12.497931072396009 2.254299781099717 0 0 0
346 1 12.849654792685456 -13.81229048607448 -1.3607002188805932 0 0 0
347 1 12.410609344857377 -12.058014552278804 0.4467997811192318 0 0 0
348 1 11.970385764081243 -10.303622688151362 2.254299781108258 0 0 0
349 1 14.602237318126967 -13.373340958780414 -3.168200218868916 0 0 0
350 1 14.163129291916036 -11.619383613242368 -1.360700218877047 0 0 0
351 1 13.72450584840206 -9.865920914517101 0.44679978111879914 0 0 0
352 1 13.287039397563916 -8.113016817924349 2.2542997811130574 0 0 0
353 1 15.916711237668096 -11.18125390644473 -3.1682002188728546 0 0 0
354 1 15.478658054277375 -9.427953119955461 -1.3607002188721993 0 0 0
355 1 15.040748948676821 -7.674595983757657 0.4467997811270813 0 0 0
356 1 14.60223731817456 -5.920819633792091 2.254299781120233 0 0 0
357 1 17.23227446215516 -8.989619957229513 -3.168200218866134 0 0 0
358 1 16.79390586022791 -7.236010697659297 -1.3607002188679795 0 0 0
359 1 16.355249113564653 -5.482292268119171 0.4467997811252215 0 0 0
360 1 15.916711237731704 -3.728732581469444 2.254299781119395 0 0 0
361 1 18.54715859130573 -6.797568243733567 -3.168200218857283 0 0 0
362 1 18.10869921787419 -5.044000915356003 -1.360700218867035 0 0 0
363 1 17.67043319445183 -3.290547420529137 0.4467997811306854 0 0 0
364 1 17.2322744622182 -1.5370986322570115 2.254299781128637 0 0 0
365 1 19.86224779945418 -4.605716720722743 -3.1682002188544707 0 0 0
366 1 19.42397195864281 -2.8522191236846073 -1.3607002188626656 0 0 0
367 1 18.985630011785233 -1.0986621934710392 0.4467997811387244 0 0 0
368 1 18.547158591354872 0.6549530812491007 2.254299781140231 0 0 0
369 1 21.177393808787485 -2.4138375291672975 -3.1682002188383422 0 0 0
370 1 20.73899373178253 -0.6602667460273803 -1.3607002188434363 0 0 0
371 1 20.30058420857904 1.0932926989384093 0.4467997811526976 0 0 0
372 1 19.862247799463674 2.8468046042905844 2.2542997811485503 0 0 0
373 1 22.492422586324423 -0.22191393362925282 -3.1682002188231175 0 0 0
374 1 22.054065391167015 1.5316187716861673 -1.360700218824138 0 0 0
375 1 21.615738631745614 3.285141064814736 0.4467997811722431 0 0 0
376 1 21.177393808749926 5.038683795875427 2.254299781173006 0 0 0
377 1 23.807531164614446 1.9699628605179687 -3.16820021879521 0 0 0
378 1 23.369179797150778 3.7235030120584494 -1.360700218794896 0 0 0
379 1 22.930805946553008 5.477055800344003 0.4467997811996382 0 0 0
380 1 22.492422586259835 7.230607391431297 2.2542997811931076 0 0 0
381 1 25.122611998705906 4.161864177060449 -3.1682002187636638 0 0 0
382 1 24.68424121461466 5.91541091884489 -1.3607002187730575 0 0 0
383 1 24.24587912117923 7.668950510130911 0.4467997812215621 0 0 0
384 1 23.80753116455928 9.422484185571312 2.2542997812201646 0 0 0
385 1 26.437689274642906 6.353760612173739 -3.1682002187397904 0 0 0
386 1 25.99933291599993 8.10729926723002 -1.3607002187405308 0 0 0
387 1 25.560976818174282 9.860839686686644 0.4467997812526126 0 0 0
388 1 25.122611998688214 11.614385502085229 2.2542997812483136 0 0 0
389 1 27.752778938268094 8.54565287428366 -3.1682002187062785 0 0 0
390 1 27.314416962445293 10.29919612885748 -1.360700218714299 0 0 0
391 1 26.876051826348686 12.052740311105401 0.4467997812832746 0 0 0
392 1 26.437689274661295 13.806281937176353 2.2542997812684376 0 0 0
393 1 29.067859343402404 10.737550310794886 -3.1682002186695843 0 0 0
394 1 28.629497232184804 12.491092415841829 -1.3607002186781483 0 0 0
395 1 28.191137701668396 14.244633140379902 0.44679978130732484 0 0 0
396 1 30.382943377684 12.929444788787483 -3.1682002186317546 0 0 0
397 1 12.849654792685456 -13.81229048607445 2.2542997811194705 0 0 0
398 1 15.04074894865073 14.68296799125 -1.3607002188621957 0 0 0
399 1 14.602237318126768 -13.373340958780467 0.4467997811310097 0 0 0
400 1 14.163129291915922 -11.619383613242258 2.2542997811228522 0 0 0
401 1 16.79390586018188 -14.688532022633337 -3.1682002188596465 0 0 0
402 1 16.355249113505664 -12.934813593090814 -1.360700218865911 0 0 0
403 1 15.916711237668025 -11.181253906444743 0.44679978112705726 0 0 0
404 1 15.478658054277531 -9.427953119955678 2.2542997811278602 0 0 0
405 1 18.108699217810823 -12.496522240314738 -3.1682002188592167 0 0 0
406 1 17.67043319438831 -10.743068745494522 -1.360700218863026 0 0 0
407 1 17.232274462155047 -8.98961995722955 0.44679978113364976 0 0 0
408 1 16.793905860227596 -7.236010697659497 2.2542997811320684 0 0 0
409 1 19.423971958586534 -10.304740448646697 -3.168200218854868 0 0 0
410 1 18.98563001173153 -8.551183518443654 -1.360700218855516 0 0 0
411 1 18.547158591305617 -6.797568243733538 0.44679978114292485 0 0 0
412 1 18.10869921787399 -5.044000915356085 2.2542997811329974 0 0 0
413 1 20.738993731747016 -8.112788071006884 -3.1682002188366973 0 0 0
414 1 20.300584208552593 -6.359228626058066 -1.3607002188443345 0 0 0
415 1 19.862247799454252 -4.605716720722697 0.4467997811457543 0 0 0
416 1 19.423971958642895 -2.8522191236846854 2.2542997811372345 0 0 0
417 1 22.054065391165622 -5.9209025533231046 -3.1682002188225105 0 0 0
418 1 21.6157386317616 -4.1673802602138235 -1.3607002188324078 0 0 0
419 1 21.177393808787585 -2.41383752916728 0.44679978116159064 0 0 0
420 1 20.7389937317828 -0.6602667460275669 2.254299781156513 0 0 0
421 1 23.369179797193496 -3.7290183129814594 -3.168200218801366 0 0 0
422 1 22.930805946610263 -1.975465524710902 -1.3607002188126993 0 0 0
423 1 22.492422586324537 -0.2219139336292386 0.44679978117686264 0 0 0
424 1 22.054065391167242 1.5316187716861993 2.254299781175872 0 0 0
425 1 24.6842412146856 -1.5371104062137686 -3.1682002187846336 0 0 0
426 1 24.24587912124474 0.21642918506858955 -1.3607002187934596 0 0 0
427 1 23.80753116461449 1.9699628605179758 0.4467997812045908 0 0 0
428 1 23.369179797150778 3.7235030120585346 2.2542997812051246 0 0 0
429 1 25.999332916056147 0.6547779421829691 -3.168200218753421 0 0 0
430 1 25.560976818210378 2.4083183616486092 -1.3607002187613058 0 0 0
431 1 25.122611998705835 4.161864177060538 0.4467997812361751 0 0 0
432 1 24.684241214614232 5.915410918844815 2.254299781227102 0 0 0
433 1 27.31441696246192 2.8466748038377627 -3.1682002187265508 0 0 0
434 1 26.876051826344778 4.60021898609145 -1.3607002187279407 0 0 0