#LAMMPS data file
144 atoms
2 atom types
-125.1250000000 125.1250000000 xlo xhi
-14.9050426500 14.9050426500 ylo yhi
-3.6150000000 3.6150000000 zlo zhi
0.0 0.0 0.0 xy xz yz

Atoms # atomic

1 1 0.6644219592 13.3930012841 -3.1602571114
2 1 0.2897222456 7.7349248247 -3.1602571109
3 1 1.3552260823 9.8938906573 -3.1602571106
4 1 1.0007377161 11.5165630084 -1.3527571109
5 1 0.6644219592 13.3930012841 0.4547428886
6 1 1.0007377162 4.0640416834 -3.1602571109
7 1 0.6644219593 5.9404799592 -1.3527571114
8 1 0.2897222455 7.7349248247 0.4547428891
9 1 1.3552260823 9.8938906574 0.4547428894
10 1 1.0007377161 11.5165630084 2.2622428891
11 1 0.6644219592 -1.5120413658 -3.1602571114
12 1 0.2897222456 0.2824034998 -1.3527571109
13 1 1.3552260823 2.4413693324 -1.3527571106
14 1 1.0007377162 4.0640416834 0.4547428891
15 1 0.6644219593 5.9404799592 2.2622428886
16 1 0.2897222456 -7.1701178253 -3.1602571109
17 1 1.3552260822 -5.0111519927 -3.1602571106
18 1 1.0007377161 -3.3884796416 -1.3527571109
19 1 0.6644219592 -1.5120413658 0.4547428886
20 1 0.2897222456 0.2824034997 2.2622428891
21 1 1.3552260823 2.4413693324 2.2622428894
22 1 1.0007377162 -10.8410009667 -3.1602571109
23 1 0.6644219593 -8.9645626909 -1.3527571114
24 1 0.2897222456 -7.1701178253 0.4547428891
25 1 1.3552260822 -5.0111519927 0.4547428894
26 1 1.0007377161 -3.3884796416 2.2622428891
27 1 0.2897222455 -14.6226391504 -1.3527571109
28 1 1.3552260823 -12.4636733177 -1.3527571106
29 1 1.0007377162 -10.8410009667 0.4547428891
30 1 0.6644219593 -8.9645626909 2.2622428886
31 1 0.2897222455 -14.6226391504 2.2622428891
32 1 1.3552260823 -12.4636733177 2.2622428894
33 1 -2.4202271140 13.3930012840 0.4547428871
34 1 -0.8779025772 13.0024241992 -1.3527571122
35 1 -2.4202271140 13.3930012840 -3.1602571129
36 1 -0.8779025776 9.3217001928 -1.3527571122
37 1 -0.8779025773 11.1753416825 0.4547428878
38 1 -0.8779025772 13.0024241992 2.2622428878
39 1 -2.4202271139 5.9404799590 -1.3527571129
40 1 -2.0455274003 7.7349248244 0.4547428865
41 1 -0.8779025776 9.3217001928 2.2622428878
42 1 -0.8779025773 11.1753416825 -3.1602571122
43 1 -2.4202271139 5.9404799590 2.2622428871
44 1 -2.0455274003 7.7349248245 -3.1602571135
45 1 -0.8779025772 3.7228203575 -1.3527571122
46 1 -0.8779025772 5.5499028744 0.4547428878
47 1 -2.0455274004 0.2824034995 -1.3527571135
48 1 -0.8779025776 1.8691788679 0.4547428878
49 1 -0.8779025772 3.7228203575 2.2622428878
50 1 -0.8779025772 5.5499028743 -3.1602571122
51 1 -2.4202271139 -1.5120413660 0.4547428871
52 1 -2.0455274003 0.2824034995 2.2622428865
53 1 -0.8779025776 1.8691788679 -3.1602571122
54 1 -0.8779025771 -1.9026184507 -1.3527571122
55 1 -2.4202271139 -1.5120413660 -3.1602571129
56 1 -0.8779025776 -5.5833424572 -1.3527571122
57 1 -0.8779025772 -3.7297009675 0.4547428879
58 1 -0.8779025772 -1.9026184507 2.2622428878
59 1 -2.4202271139 -8.9645626910 -1.3527571129
60 1 -2.0455274003 -7.1701178256 0.4547428865
61 1 -0.8779025776 -5.5833424572 2.2622428878
62 1 -0.8779025772 -3.7297009675 -3.1602571121
63 1 -2.4202271139 -8.9645626911 2.2622428871
64 1 -2.0455274003 -7.1701178256 -3.1602571135
65 1 -0.8779025773 -11.1822222925 -1.3527571121
66 1 -0.8779025773 -9.3551397757 0.4547428878
67 1 -2.0455274003 -14.6226391506 -1.3527571135
68 1 -0.8779025777 -13.0358637822 0.4547428878
69 1 -0.8779025773 -11.1822222925 2.2622428879
70 1 -0.8779025773 -9.3551397758 -3.1602571122
71 1 -2.0455274003 -14.6226391506 2.2622428865
72 1 -0.8779025777 -13.0358637822 -3.1602571122
73 2 -0.2897222449 -14.6252406271 -3.1682002191
74 2 -0.2897222450 7.7323233478 -1.3607002191
75 2 0.8779025779 11.1727402059 -1.3607002190
76 2 0.8779025779 12.9998227227 0.4467997810
77 2 0.8779025779 12.9998227228 -3.1682002190
78 2 0.8779025779 5.5473013977 -1.3607002190
79 2 0.8779025779 5.5473013977 2.2542997810
80 2 -0.2897222450 7.7323233478 2.2542997809
81 2 0.8779025778 9.3190987163 0.4467997810
82 2 0.8779025779 11.1727402059 2.2542997810
83 2 0.8779025779 -1.9052199272 -3.1682002190
84 2 -0.2897222450 0.2798020229 0.4467997809
85 2 0.8779025778 1.8665773913 -1.3607002190
86 2 0.8779025779 3.7202188809 0.4467997810
87 2 0.8779025778 9.3190987163 -3.1682002190
88 2 -0.2897222450 -7.1727193021 -1.3607002191
89 2 0.8779025779 -3.7323024440 -1.3607002190
90 2 0.8779025779 -1.9052199272 0.4467997810
91 2 -0.2897222450 0.2798020229 -3.1682002191
92 2 0.8779025779 3.7202188809 -3.1682002190
93 2 0.8779025778 1.8665773913 2.2542997810
94 2 0.8779025779 -9.3577412522 -1.3607002190
95 2 0.8779025779 -9.3577412522 2.2542997810
96 2 -0.2897222450 -7.1727193021 2.2542997809
97 2 0.8779025778 -5.5859439337 0.4467997810
98 2 0.8779025779 -3.7323024440 2.2542997810
99 2 -0.2897222450 -14.6252406271 0.4467997809
100 2 0.8779025779 -13.0384652587 -1.3607002190
101 2 0.8779025779 -11.1848237690 0.4467997810
102 2 0.8779025778 -5.5859439337 -3.1682002190
103 2 0.8779025779 -11.1848237690 -3.1682002190
104 2 0.8779025779 -13.0384652587 2.2542997810
105 2 -2.3602161126 13.7765195296 0.4467997809
106 2 -0.6644219586 13.3903998074 -1.3607002190
107 2 -2.3602161126 13.7765195296 -3.1682002191
108 2 -1.3552260814 9.8912891806 -1.3607002191
109 2 -1.0007377154 11.5139615316 0.4467997809
110 2 -0.6644219586 13.3903998074 2.2542997810
111 2 -2.3602161126 6.3239982045 -1.3607002191
112 2 -1.8936065220 8.1735167503 0.4467997809
113 2 -1.3552260814 9.8912891806 2.2542997809
114 2 -1.0007377154 11.5139615316 -3.1682002191
115 2 -2.3602161126 6.3239982045 2.2542997809
116 2 -1.8936065220 8.1735167503 -3.1682002191
117 2 -1.0007377154 4.0614402066 -1.3607002191
118 2 -0.6644219586 5.9378784824 0.4467997810
119 2 -1.8936065221 0.7209954253 -1.3607002191
120 2 -1.3552260814 2.4387678557 0.4467997809
121 2 -1.0007377154 4.0614402066 2.2542997809
122 2 -0.6644219586 5.9378784824 -3.1682002190
123 2 -2.3602161127 -1.1285231204 0.4467997809
124 2 -1.8936065221 0.7209954253 2.2542997809
125 2 -1.3552260814 2.4387678557 -3.1682002191
126 2 -0.6644219586 -1.5146428426 -1.3607002191
127 2 -2.3602161127 -1.1285231204 -3.1682002191
128 2 -1.3552260814 -5.0137534693 -1.3607002191
129 2 -1.0007377154 -3.3910811183 0.4467997809
130 2 -0.6644219586 -1.5146428426 2.2542997809
131 2 -2.3602161126 -8.5810444454 -1.3607002191
132 2 -1.8936065220 -6.7315258996 0.4467997809
133 2 -1.3552260814 -5.0137534693 2.2542997809
134 2 -1.0007377154 -3.3910811183 -3.1682002191
135 2 -2.3602161126 -8.5810444454 2.2542997809
136 2 -1.8936065220 -6.7315258996 -3.1682002191
137 2 -1.0007377154 -10.8436024433 -1.3607002191
138 2 -0.6644219586 -8.9671641675 0.4467997809
139 2 -1.8936065220 -14.1840472246 -1.3607002191
140 2 -1.3552260813 -12.4662747943 0.4467997809
141 2 -1.0007377154 -10.8436024433 2.2542997809
142 2 -0.6644219586 -8.9671641675 -3.1682002191
143 2 -1.8936065220 -14.1840472246 2.2542997809
144 2 -1.3552260813 -12.4662747943 -3.1682002191
