# LAMMPS data file Sigma = 17, inclination = 0.000000
#LAMMPS data file
3656 atoms
2 atom types
-100.1000000000 100.1000000000 xlo xhi
-14.9050426500 14.9050426500 ylo yhi
-3.6150000000 3.6150000000 zlo zhi
0.0 0.0 0.0 xy xz yz

Atoms # atomic

1 2 -0.0000003986 -14.4943752421 3.6150000000
2 2 0.0000001993 7.8705502845 -1.8075000000
3 2 0.8767665776 11.3866318716 -1.8075000000
4 2 1.3151497667 13.1454040059 0.0000000000
5 2 1.3151497667 13.1454040059 3.6150000000
6 1 2.6302985370 11.4098047818 -1.8075000000
7 1 2.1919153479 13.1579782739 0.0000000000
8 1 3.9454479052 13.6226423722 -1.8075000000
9 2 1.3151495674 5.6941214476 -1.8075000000
10 2 1.3151495674 5.6941214476 1.8075000000
11 2 0.0000001993 7.8705502845 1.8075000000
12 1 2.1919155472 5.7039630377 -1.8075000000
13 1 1.7535323580 7.4525379290 0.0000000000
14 2 0.4383833884 9.6284251657 0.0000000000
15 2 0.8767665776 11.3866318716 1.8075000000
16 1 3.5070649153 7.9117648675 -1.8075000000
17 1 3.0686817262 9.6609783971 0.0000000000
18 1 2.6302985370 11.4098047818 1.8075000000
19 1 2.1919153479 13.1579782739 3.6150000000
20 1 4.8222142835 10.1216858526 -1.8075000000
21 1 4.3838310943 11.8722063380 0.0000000000
22 1 3.9454479052 13.6226423722 1.8075000000
23 1 6.1373636516 12.3346844054 -1.8075000000
24 1 5.6989804625 14.0875334782 0.0000000000
25 2 1.3151493681 -1.7582570811 3.6150000000
26 2 0.0000000000 0.4196570596 0.0000000000
27 1 1.7535325573 -0.0000060170 -1.8075000000
28 2 0.4383831891 2.1778075153 -1.8075000000
29 2 0.8767663783 3.9359206852 0.0000000000
30 2 0.4383833884 9.6284251657 3.6150000000
31 1 3.0686819254 2.2061222892 -1.8075000000
32 1 2.6302987363 3.9551080743 0.0000000000
33 1 2.1919155472 5.7039630377 1.8075000000
34 1 1.7535323580 7.4525379290 3.6150000000
35 1 4.3838312936 4.4128668863 -1.8075000000
36 1 3.9454481044 6.1623481416 0.0000000000
37 1 3.5070649153 7.9117648675 1.8075000000
38 1 3.0686817262 9.6609783971 3.6150000000
39 1 5.6989806617 6.6207939146 -1.8075000000
40 1 5.2605974726 8.3711878478 0.0000000000
41 1 4.8222142835 10.1216858526 1.8075000000
42 1 4.3838310943 11.8722063380 3.6150000000
43 1 7.0141300299 8.8305049823 -1.8075000000
44 1 6.5757468407 10.5823669169 0.0000000000
45 1 6.1373636516 12.3346844054 1.8075000000
46 1 5.6989804625 14.0875334782 3.6150000000
47 1 8.3292793980 11.0425991003 -1.8075000000
48 1 7.8908962089 12.7966422951 0.0000000000
49 1 9.6444287662 13.2575468119 -1.8075000000
50 2 -0.0000001993 -7.0345376073 -1.8075000000
51 2 0.8767661790 -3.5166700985 -1.8075000000
52 2 1.3151493681 -1.7582570811 0.0000000000
53 2 0.0000000000 0.4196570596 3.6150000000
54 2 0.8767663783 3.9359206852 3.6150000000
55 1 2.6302989356 -3.4975765508 -1.8075000000
56 1 2.1919157464 -1.7488436930 0.0000000000
57 1 1.7535325573 -0.0000060170 1.8075000000
58 2 0.4383831891 2.1778075153 1.8075000000
59 1 3.9454483037 -1.2917368033 -1.8075000000
60 1 3.5070651146 0.4571340378 0.0000000000
61 1 3.0686819254 2.2061222892 1.8075000000
62 1 2.6302987363 3.9551080743 3.6150000000
63 1 5.2605976719 0.9141569662 -1.8075000000
64 1 4.8222144827 2.6634354246 0.0000000000
65 1 4.3838312936 4.4128668863 1.8075000000
66 1 3.9454481044 6.1623481416 3.6150000000
67 1 6.5757470400 3.1205953166 -1.8075000000
68 1 6.1373638509 4.8705741507 0.0000000000
69 1 5.6989806617 6.6207939146 1.8075000000
70 1 5.2605974726 8.3711878478 3.6150000000
71 1 7.8908964082 5.3280408839 -1.8075000000
72 1 7.4525132190 7.0790650270 0.0000000000
73 1 7.0141300299 8.8305049823 1.8075000000
74 1 6.5757468407 10.5823669169 3.6150000000
75 1 9.2060457763 7.5369235652 -1.8075000000
76 1 8.7676625872 9.2894045133 0.0000000000
77 1 8.3292793980 11.0425991003 1.8075000000
78 1 7.8908962089 12.7966422951 3.6150000000
79 1 10.5211951445 9.7475998758 -1.8075000000
80 1 10.0828119553 11.5019977663 0.0000000000
81 1 9.6444287662 13.2575468119 1.8075000000
82 1 11.8363445126 11.9602641207 -1.8075000000
83 1 11.3979613235 13.7170099418 0.0000000000
84 1 13.1514938808 14.1748175553 -1.8075000000
85 2 1.3151491689 -9.2115099680 -1.8075000000
86 2 1.3151491689 -9.2115099680 1.8075000000
87 2 -0.0000001993 -7.0345376073 1.8075000000
88 1 2.1919159457 -9.2008025073 -1.8075000000
89 1 1.7535327566 -7.4525499545 0.0000000000
90 2 0.4383829899 -5.2753744314 0.0000000000
91 2 0.8767661790 -3.5166700985 1.8075000000
92 1 3.5070653139 -6.9941701946 -1.8075000000
93 1 3.0686821247 -5.2460701608 0.0000000000
94 1 2.6302989356 -3.4975765508 1.8075000000
95 1 2.1919157464 -1.7488436930 3.6150000000
96 1 4.8222146820 -4.7886291749 -1.8075000000
97 1 4.3838314929 -3.0403687431 0.0000000000
98 1 3.9454483037 -1.2917368033 1.8075000000
99 1 3.5070651146 0.4571340378 3.6150000000
100 1 6.1373640502 -2.5835289345 -1.8075000000
101 1 5.6989808610 -0.8348669840 0.0000000000
102 1 5.2605976719 0.9141569662 1.8075000000
103 1 4.8222144827 2.6634354246 3.6150000000
104 1 7.4525134183 -0.3783569723 -1.8075000000
105 1 7.0141302292 1.3709263947 0.0000000000
106 1 6.5757470400 3.1205953166 1.8075000000
107 1 6.1373638509 4.8705741507 3.6150000000
108 1 8.7676627865 1.8273120565 -1.8075000000
109 1 8.3292795973 3.5774464147 0.0000000000
110 1 7.8908964082 5.3280408839 1.8075000000
111 1 7.4525132190 7.0790650270 3.6150000000
112 1 10.0828121546 4.0338399203 -1.8075000000
113 1 9.6444289655 5.7850806484 0.0000000000
114 1 9.2060457763 7.5369235652 1.8075000000
115 1 8.7676625872 9.2894045133 3.6150000000
116 1 11.3979615227 6.2415229089 -1.8075000000
117 1 10.9595783336 7.9941504759 0.0000000000
118 1 10.5211951445 9.7475998758 1.8075000000
119 1 10.0828119553 11.5019977663 3.6150000000
120 1 12.7131108909 8.4505638676 -1.8075000000
121 1 12.2747277018 10.2048589630 0.0000000000
122 1 11.8363445126 11.9602641207 1.8075000000
123 1 11.3979613235 13.7170099418 3.6150000000
124 1 14.0282602590 10.6610203815 -1.8075000000
125 1 13.5898770699 12.4172077766 0.0000000000
126 1 13.1514938808 14.1748175553 1.8075000000
127 1 15.3434096272 12.8727432759 -1.8075000000
128 2 -0.0000003986 -14.4943752421 0.0000000000
129 1 1.7535329558 14.9049914234 -1.8075000000
130 2 0.4383827906 -12.7319750320 -1.8075000000
131 2 0.8767659797 -10.9712020021 0.0000000000
132 2 0.4383829899 -5.2753744314 3.6150000000
133 1 3.0686823240 -12.6951367307 -1.8075000000
134 1 2.6302991349 -10.9484343620 0.0000000000
135 1 2.1919159457 -9.2008025073 1.8075000000
136 1 1.7535327566 -7.4525499545 3.6150000000
137 1 4.3838316921 -10.4883782126 -1.8075000000
138 1 3.9454485030 -8.7416876188 0.0000000000
139 1 3.5070653139 -6.9941701946 1.8075000000
140 1 3.0686821247 -5.2460701608 3.6150000000
141 1 5.6989810603 -8.2833857887 -1.8075000000
142 1 5.2605978711 -6.5363640979 0.0000000000
143 1 4.8222146820 -4.7886291749 1.8075000000
144 1 4.3838314929 -3.0403687431 3.6150000000
145 1 7.0141304284 -6.0792631302 -1.8075000000
146 1 6.5757472393 -4.3317081703 0.0000000000
147 1 6.1373640502 -2.5835289345 1.8075000000
148 1 5.6989808610 -0.8348669840 3.6150000000
149 1 8.3292797966 -3.8754065756 -1.8075000000
150 1 7.8908966074 -2.1271683940 0.0000000000
151 1 7.4525134183 -0.3783569723 1.8075000000
152 1 7.0141302292 1.3709263947 3.6150000000
153 1 9.6444291647 -1.6713778813 -1.8075000000
154 1 9.2060459756 0.0776835700 0.0000000000
155 1 8.7676627865 1.8273120565 1.8075000000
156 1 8.3292795973 3.5774464147 3.6150000000
157 1 10.9595785329 0.5331597814 -1.8075000000
158 1 10.5211953437 2.2831943916 0.0000000000
159 1 10.0828121546 4.0338399203 1.8075000000
160 1 9.6444289655 5.7850806484 3.6150000000
161 1 12.2747279010 2.7384689790 -1.8075000000
162 1 11.8363447119 4.4896419401 0.0000000000
163 1 11.3979615227 6.2415229089 1.8075000000
164 1 10.9595783336 7.9941504759 3.6150000000
165 1 13.5898772692 4.9447404525 -1.8075000000
166 1 13.1514940800 6.6972245294 0.0000000000
167 1 12.7131108909 8.4505638676 1.8075000000
168 1 12.2747277018 10.2048589630 3.6150000000
169 1 14.9050266373 7.1520772655 -1.8075000000
170 1 14.4666434482 8.9060302625 0.0000000000
171 1 14.0282602590 10.6610203815 1.8075000000
172 1 13.5898770699 12.4172077766 3.6150000000
173 1 16.2201760055 9.3604675319 -1.8075000000
174 1 15.7817928163 11.1159952057 0.0000000000
175 1 15.3434096272 12.8727432759 1.8075000000
176 1 17.5353253736 11.5697577062 -1.8075000000
177 1 17.0969421845 13.3268696875 0.0000000000
178 1 18.8504747418 13.7796444368 -1.8075000000
179 2 0.8767659797 -10.9712020021 3.6150000000
180 1 1.7535329558 14.9049914234 1.8075000000
181 2 0.4383827906 -12.7319750320 1.8075000000
182 1 3.5070655131 -14.4404565466 0.0000000000
183 1 3.0686823240 -12.6951367307 1.8075000000
184 1 2.6302991349 -10.9484343620 3.6150000000
185 1 5.2605980704 -13.9778330099 -1.8075000000
186 1 4.8222148813 -12.2339127705 0.0000000000
187 1 4.3838316921 -10.4883782126 1.8075000000
188 1 3.9454485030 -8.7416876188 3.6150000000
189 1 6.5757474386 -11.7742716417 -1.8075000000
190 1 6.1373642494 -10.0294571458 0.0000000000
191 1 5.6989810603 -8.2833857887 1.8075000000
192 1 5.2605978711 -6.5363640979 3.6150000000
193 1 7.8908968067 -9.5717773661 -1.8075000000
194 1 7.4525136176 -7.8260228563 0.0000000000
195 1 7.0141304284 -6.0792631302 1.8075000000
196 1 6.5757472393 -4.3317081703 3.6150000000
197 1 9.2060461749 -7.3696569251 -1.8075000000
198 1 8.7676629857 -5.6229509110 0.0000000000
199 1 8.3292797966 -3.8754065756 1.8075000000
200 1 7.8908966074 -2.1271683940 3.6150000000
201 1 10.5211955430 -5.1674723011 -1.8075000000
202 1 10.0828123539 -3.4197948412 0.0000000000
203 1 9.6444291647 -1.6713778813 1.8075000000
204 1 9.2060459756 0.0776835700 3.6150000000
205 1 11.8363449112 -2.9649194757 -1.8075000000
206 1 11.3979617220 -1.2162289308 0.0000000000
207 1 10.9595785329 0.5331597814 1.8075000000
208 1 10.5211953437 2.2831943916 3.6150000000
209 1 13.1514942793 -0.7617754883 -1.8075000000
210 1 12.7131110902 0.9879929600 0.0000000000
211 1 12.2747279010 2.7384689790 1.8075000000
212 1 11.8363447119 4.4896419401 3.6150000000
213 1 14.4666436475 1.4421214942 -1.8075000000
214 1 14.0282604583 3.1930501912 0.0000000000
215 1 13.5898772692 4.9447404525 1.8075000000
216 1 13.1514940800 6.6972245294 3.6150000000
217 1 15.7817930156 3.6468735205 -1.8075000000
218 1 15.3434098265 5.3990499334 0.0000000000
219 1 14.9050266373 7.1520772655 1.8075000000
220 1 14.4666434482 8.9060302625 3.6150000000
221 1 17.0969423838 5.8525130896 -1.8075000000
222 1 16.6585591946 7.6060103667 0.0000000000
223 1 16.2201760055 9.3604675319 1.8075000000
224 1 15.7817928163 11.1159952057 3.6150000000
225 1 18.4120917519 8.0589887382 -1.8075000000
226 1 17.9737085628 9.8138408010 0.0000000000
227 1 17.5353253736 11.5697577062 1.8075000000
228 1 17.0969421845 13.3268696875 3.6150000000
229 1 19.7272411201 10.2661540081 -1.8075000000
230 1 19.2888579309 12.0223305226 0.0000000000
231 1 18.8504747418 13.7796444368 1.8075000000
232 1 21.0423904882 12.4737690545 -1.8075000000
233 1 20.6040072991 14.2311592608 0.0000000000
234 1 3.5070655131 -14.4404565466 3.6150000000
235 1 5.2605980704 -13.9778330099 1.8075000000
236 1 4.8222148813 -12.2339127705 3.6150000000
237 1 7.4525138169 14.5516742603 -1.8075000000
238 1 7.0141306277 -13.5174290132 0.0000000000
239 1 6.5757474386 -11.7742716417 1.8075000000
240 1 6.1373642494 -10.0294571458 3.6150000000
241 1 8.7676631850 -13.0591779679 -1.8075000000
242 1 8.3292799959 -11.3162676519 0.0000000000
243 1 7.8908968067 -9.5717773661 1.8075000000
244 1 7.4525136176 -7.8260228563 3.6150000000
245 1 10.0828125532 -10.8598338116 -1.8075000000
246 1 9.6444293640 -9.1153521384 0.0000000000
247 1 9.2060461749 -7.3696569251 1.8075000000
248 1 8.7676629857 -5.6229509110 3.6150000000
249 1 11.3979619213 -8.6601355780 -1.8075000000
250 1 10.9595787322 -6.9142966274 0.0000000000
251 1 10.5211955430 -5.1674723011 1.8075000000
252 1 10.0828123539 -3.4197948412 3.6150000000
253 1 12.7131112895 -6.4599189059 -1.8075000000
254 1 12.2747281003 -4.7128436556 0.0000000000
255 1 11.8363449112 -2.9649194757 1.8075000000
256 1 11.3979617220 -1.2162289308 3.6150000000
257 1 14.0282606576 -4.2590619325 -1.8075000000
258 1 13.5898774685 -2.5108080502 0.0000000000
259 1 13.1514942793 -0.7617754883 1.8075000000
260 1 12.7131110902 0.9879929600 3.6150000000
261 1 15.3434100257 -2.0574734114 -1.8075000000
262 1 14.9050268366 -0.3080555177 0.0000000000
263 1 14.4666436475 1.4421214942 1.8075000000
264 1 14.0282604583 3.1930501912 3.6150000000
265 1 16.6585593939 0.1449075138 -1.8075000000
266 1 16.2201762048 1.8955012066 0.0000000000
267 1 15.7817930156 3.6468735205 1.8075000000
268 1 15.3434098265 5.3990499334 3.6150000000
269 1 17.9737087620 2.3481049676 -1.8075000000
270 1 17.5353255729 4.0998962703 0.0000000000
271 1 17.0969423838 5.8525130896 1.8075000000
272 1 16.6585591946 7.6060103667 3.6150000000
273 1 19.2888581302 4.5520966409 -1.8075000000
274 1 18.8504749411 6.3050998361 0.0000000000
275 1 18.4120917519 8.0589887382 1.8075000000
276 1 17.9737085628 9.8138408010 3.6150000000
277 1 20.6040074983 6.7568041761 -1.8075000000
278 1 20.1656243092 8.5110079855 0.0000000000
279 1 19.7272411201 10.2661540081 1.8075000000
280 1 19.2888579309 12.0223305226 3.6150000000
281 1 21.9191568665 8.9620879120 -1.8075000000
282 1 21.4807736773 10.7174398782 0.0000000000
283 1 21.0423904882 12.4737690545 1.8075000000
284 1 20.6040072991 14.2311592608 3.6150000000
285 1 23.2343062346 11.1677503486 -1.8075000000
286 1 22.7959230455 12.9241479634 0.0000000000
287 1 24.5494556028 13.3735508976 -1.8075000000
288 1 7.4525138169 14.5516742603 1.8075000000
289 1 7.0141306277 -13.5174290132 3.6150000000
290 1 9.2060463742 -14.8001372425 0.0000000000
291 1 8.7676631850 -13.0591779679 1.8075000000
292 1 8.3292799959 -11.3162676519 3.6150000000
293 1 10.9595789314 -14.3442207972 -1.8075000000
294 1 10.5211957423 -12.6028716160 0.0000000000
295 1 10.0828125532 -10.8598338116 1.8075000000
296 1 9.6444293640 -9.1153521384 3.6150000000
297 1 12.2747282996 -12.1482560375 -1.8075000000
298 1 11.8363451104 -10.4048409162 0.0000000000
299 1 11.3979619213 -8.6601355780 1.8075000000
300 1 10.9595787322 -6.9142966274 3.6150000000
301 1 13.5898776677 -9.9511391739 -1.8075000000
302 1 13.1514944786 -8.2060510044 0.0000000000
303 1 12.7131112895 -6.4599189059 1.8075000000
304 1 12.2747281003 -4.7128436556 3.6150000000
305 1 14.9050270359 -7.7530106199 -1.8075000000
306 1 14.4666438467 -6.0064831342 0.0000000000
307 1 14.0282606576 -4.2590619325 1.8075000000
308 1 13.5898774685 -2.5108080502 3.6150000000
309 1 16.2201764040 -5.5539408265 -1.8075000000
310 1 15.7817932149 -3.8061116676 0.0000000000
311 1 15.3434100257 -2.0574734114 1.8075000000
312 1 14.9050268366 -0.3080555177 3.6150000000
313 1 17.5353257722 -3.3539697649 -1.8075000000
314 1 17.0969425830 -1.6049169036 0.0000000000
315 1 16.6585593939 0.1449075138 1.8075000000
316 1 16.2201762048 1.8955012066 3.6150000000
317 1 18.8504751403 -1.1531307314 -1.8075000000
318 1 18.4120919512 0.5971032039 0.0000000000
319 1 17.9737087620 2.3481049676 1.8075000000
320 1 17.5353255729 4.0998962703 3.6150000000
321 1 20.1656245085 1.0485327345 -1.8075000000
322 1 19.7272413193 2.7999215549 0.0000000000
323 1 19.2888581302 4.5520966409 1.8075000000
324 1 18.8504749411 6.3050998361 3.6150000000
325 1 21.4807738766 3.2509538622 -1.8075000000
326 1 21.0423906875 5.0034715193 0.0000000000
327 1 20.6040074983 6.7568041761 1.8075000000
328 1 20.1656243092 8.5110079855 3.6150000000
329 1 22.7959232448 5.4540334396 -1.8075000000
330 1 22.3575400556 7.2076398569 0.0000000000
331 1 21.9191568665 8.9620879120 1.8075000000
332 1 21.4807736773 10.7174398782 3.6150000000
333 1 24.1110726129 7.6576356311 -1.8075000000
334 1 23.6726894238 9.4122657982 0.0000000000
335 1 23.2343062346 11.1677503486 1.8075000000
336 1 22.7959230455 12.9241479634 3.6150000000
337 1 25.4262219811 9.8615903414 -1.8075000000
338 1 24.9878387919 11.6171485518 0.0000000000
339 1 24.5494556028 13.3735508976 1.8075000000
340 1 26.7413713492 12.0657027096 -1.8075000000
341 1 26.3029881601 13.8220634030 0.0000000000
342 1 28.0565207174 14.2697684535 -1.8075000000
343 1 9.2060463742 -14.8001372425 3.6150000000
344 1 10.9595789314 -14.3442207972 1.8075000000
345 1 10.5211957423 -12.6028716160 3.6150000000
346 1 12.7131114887 -13.8902320456 0.0000000000
347 1 12.2747282996 -12.1482560375 1.8075000000
348 1 11.8363451104 -10.4048409162 3.6150000000
349 1 14.4666440460 -13.4378080073 -1.8075000000
350 1 14.0282608569 -11.6950851593 0.0000000000
351 1 13.5898776677 -9.9511391739 1.8075000000
352 1 13.1514944786 -8.2060510044 3.6150000000
353 1 15.7817934142 -11.2431437213 -1.8075000000
354 1 15.3434102250 -9.4985822993 0.0000000000
355 1 14.9050270359 -7.7530106199 1.8075000000
356 1 14.4666438467 -6.0064831342 3.6150000000
357 1 17.0969427823 -9.0470388698 -1.8075000000
358 1 16.6585595932 -7.3009272173 0.0000000000
359 1 16.2201764040 -5.5539408265 1.8075000000
360 1 15.7817932149 -3.8061116676 3.6150000000
361 1 18.4120921505 -6.8497200425 -1.8075000000
362 1 17.9737089613 -5.1022415231 0.0000000000
363 1 17.5353257722 -3.3539697649 1.8075000000
364 1 17.0969425830 -1.6049169036 3.6150000000
365 1 19.7272415186 -4.6513358941 -1.8075000000
366 1 19.2888583295 -2.9026085143 0.0000000000
367 1 18.8504751403 -1.1531307314 1.8075000000
368 1 18.4120919512 0.5971032039 3.6150000000
369 1 21.0423908868 -2.4519973786 -1.8075000000
370 1 20.6040076976 -0.7020997189 0.0000000000
371 1 20.1656245085 1.0485327345 1.8075000000
372 1 19.7272413193 2.7999215549 3.6150000000
373 1 22.3575402549 -0.2518027055 -1.8075000000
374 1 21.9191570658 1.4992072844 0.0000000000
375 1 21.4807738766 3.2509538622 1.8075000000
376 1 21.0423906875 5.0034715193 3.6150000000
377 1 23.6726896231 1.9491463431 -1.8075000000
378 1 23.2343064339 3.7012166626 0.0000000000
379 1 22.7959232448 5.4540334396 1.8075000000
380 1 22.3575400556 7.2076398569 3.6150000000
381 1 24.9878389912 4.1507341708 -1.8075000000
382 1 24.5494558021 5.9038071990 0.0000000000
383 1 24.1110726129 7.6576356311 1.8075000000
384 1 23.6726894238 9.4122657982 3.6150000000
385 1 26.3029883594 6.3528265305 -1.8075000000
386 1 25.8646051702 8.1068307454 0.0000000000
387 1 25.4262219811 9.8615903414 1.8075000000
388 1 24.9878387919 11.6171485518 3.6150000000
389 1 27.6181377275 8.5552710277 -1.8075000000
390 1 27.1797545384 10.3101166821 0.0000000000
391 1 26.7413713492 12.0657027096 1.8075000000
392 1 26.3029881601 13.8220634030 3.6150000000
393 1 28.9332870957 10.7579026170 -1.8075000000
394 1 28.4949039065 12.5134818337 0.0000000000
395 1 28.0565207174 14.2697684535 1.8075000000
396 1 30.2484364638 12.9605529159 -1.8075000000
397 1 12.7131114887 -13.8902320456 3.6150000000
398 1 14.9050272352 14.6308196052 0.0000000000
399 1 14.4666440460 -13.4378080073 1.8075000000
400 1 14.0282608569 -11.6950851593 3.6150000000
401 1 16.6585597925 -14.7291320052 -1.8075000000
402 1 16.2201766033 -12.9866601574 0.0000000000
403 1 15.7817934142 -11.2431437213 1.8075000000
404 1 15.3434102250 -9.4985822993 3.6150000000
405 1 17.9737091606 -12.5365656521 -1.8075000000
406 1 17.5353259715 -10.7922530634 0.0000000000
407 1 17.0969427823 -9.0470388698 1.8075000000
408 1 16.6585595932 -7.3009272173 3.6150000000
409 1 19.2888585288 -10.3422688735 -1.8075000000
410 1 18.8504753396 -8.5963959539 0.0000000000
411 1 18.4120921505 -6.8497200425 1.8075000000
412 1 17.9737089613 -5.1022415231 3.6150000000
413 1 20.6040078969 -8.1465586824 -1.8075000000
414 1 20.1656247078 -6.3993169499 0.0000000000
415 1 19.7272415186 -4.6513358941 1.8075000000
416 1 19.2888583295 -2.9026085143 3.6150000000
417 1 21.9191572650 -5.9496544877 -1.8075000000
418 1 21.4807740759 -4.2011770645 0.0000000000
419 1 21.0423908868 -2.4519973786 1.8075000000
420 1 20.6040076976 -0.7020997189 3.6150000000
421 1 23.2343066332 -3.7517209392 -1.8075000000
422 1 22.7959234441 -2.0021040279 0.0000000000
423 1 22.3575402549 -0.2518027055 1.8075000000
424 1 21.9191570658 1.4992072844 3.6150000000
425 1 24.5494560013 -1.5528949706 -1.8075000000
426 1 24.1110728122 0.1977862529 0.0000000000
427 1 23.6726896231 1.9491463431 1.8075000000
428 1 23.2343064339 3.7012166626 3.6150000000
429 1 25.8646053695 0.6466967862 -1.8075000000
430 1 25.4262221804 2.3983759871 0.0000000000
431 1 24.9878389912 4.1507341708 1.8075000000
432 1 24.5494558021 5.9038071990 3.6150000000
433 1 27.1797547376 2.8469272025 -1.8075000000
434 1 26.7413715485 4.5995376266 0.0000000000
435 1 26.3029883594 6.3528265305 1.8075000000
436 1 25.8646051702 8.1068307454 3.6150000000
437 1 28.4949041058 5.0476630730 -1.8075000000
438 1 28.0565209166 6.8011311058 0.0000000000
439 1 27.6181377275 8.5552710277 1.8075000000
440 1 27.1797545384 10.3101166821 3.6150000000
441 1 29.8100534739 7.2487640140 -1.8075000000
442 1 29.3716702848 9.0030057293 0.0000000000
443 1 28.9332870957 10.7579026170 1.8075000000
444 1 28.4949039065 12.5134818337 3.6150000000
445 1 31.1252028421 9.4500851274 -1.8075000000
446 1 30.6868196529 11.2050058948 0.0000000000
447 1 30.2484364638 12.9605529159 1.8075000000
448 1 32.4403522102 11.6514824101 -1.8075000000
449 1 32.0019690211 13.4069792458 0.0000000000
450 1 33.7555015784 13.8528195283 -1.8075000000
451 1 14.9050272352 14.6308196052 3.6150000000
452 1 16.6585597925 -14.7291320052 1.8075000000
453 1 16.2201766033 -12.9866601574 3.6150000000
454 1 18.4120923497 -14.2800016817 0.0000000000
455 1 17.9737091606 -12.5365656521 1.8075000000
456 1 17.5353259715 -10.7922530634 3.6150000000
457 1 20.1656249070 -13.8316912769 -1.8075000000
458 1 19.7272417179 -12.0873543882 0.0000000000
459 1 19.2888585288 -10.3422688735 1.8075000000
460 1 18.8504753396 -8.5963959539 3.6150000000
461 1 21.4807742752 -11.6388967456 -1.8075000000
462 1 21.0423910860 -9.8930759742 0.0000000000
463 1 20.6040078969 -8.1465586824 1.8075000000
464 1 20.1656247078 -6.3993169499 3.6150000000
465 1 22.7959236433 -9.4445826110 -1.8075000000
466 1 22.3575404542 -7.6974480299 0.0000000000
467 1 21.9191572650 -5.9496544877 1.8075000000
468 1 21.4807740759 -4.2011770645 3.6150000000
469 1 24.1110730115 -7.2489980687 -1.8075000000
470 1 23.6726898223 -5.5006769981 0.0000000000
471 1 23.2343066332 -3.7517209392 1.8075000000
472 1 22.7959234441 -2.0021040279 3.6150000000
473 1 25.4262223796 -5.0523353794 -1.8075000000
474 1 24.9878391905 -3.3029260516 0.0000000000
475 1 24.5494560013 -1.5528949706 1.8075000000
476 1 24.1110728122 0.1977862529 3.6150000000
477 1 26.7413717478 -2.8547532486 -1.8075000000
478 1 26.3029885586 -1.1043359994 0.0000000000
479 1 25.8646053695 0.6466967862 1.8075000000
480 1 25.4262221804 2.3983759871 3.6150000000
481 1 28.0565211159 -0.6563925672 -1.8075000000
482 1 27.6181379268 1.0949611887 0.0000000000
483 1 27.1797547376 2.8469272025 1.8075000000
484 1 26.7413715485 4.5995376266 3.6150000000
485 1 29.3716704841 1.5426134768 -1.8075000000
486 1 28.9332872949 3.2948343331 0.0000000000
487 1 28.4949041058 5.0476630730 1.8075000000
488 1 28.0565209166 6.8011311058 3.6150000000
489 1 30.6868198522 3.7421337144 -1.8075000000
490 1 30.2484366631 5.4951494341 0.0000000000
491 1 29.8100534739 7.2487640140 1.8075000000
492 1 29.3716702848 9.0030057293 3.6150000000
493 1 32.0019692204 5.9420369384 -1.8075000000
494 1 31.5635860312 7.6957697591 0.0000000000
495 1 31.1252028421 9.4500851274 1.8075000000
496 1 30.6868196529 11.2050058948 3.6150000000
497 1 33.3171185885 8.1421927519 -1.8075000000
498 1 32.8787353994 9.8965588054 0.0000000000
499 1 32.4403522102 11.6514824101 1.8075000000
500 1 32.0019690211 13.4069792458 3.6150000000
501 1 34.6322679567 10.3424744939 -1.8075000000
502 1 34.1938847675 12.0973850880 0.0000000000
503 1 33.7555015784 13.8528195283 1.8075000000
504 1 35.9474173248 12.5427632737 -1.8075000000
505 1 35.5090341357 14.2981275387 0.0000000000
506 1 18.4120923497 -14.2800016817 3.6150000000
507 1 20.1656249070 -13.8316912769 1.8075000000
508 1 19.7272417179 -12.0873543882 3.6150000000
509 1 22.3575406535 14.6814313215 -1.8075000000
510 1 21.9191574643 -13.3840668513 0.0000000000
511 1 21.4807742752 -11.6388967456 1.8075000000
512 1 21.0423910860 -9.8930759742 3.6150000000
513 1 23.6726900216 -12.9370294504 -1.8075000000
514 1 23.2343068325 -11.1910934616 0.0000000000
515 1 22.7959236433 -9.4445826110 1.8075000000
516 1 22.3575404542 -7.6974480299 3.6150000000
517 1 24.9878393898 -10.7438677523 -1.8075000000
518 1 24.5494562006 -8.9967152771 0.0000000000
519 1 24.1110730115 -7.2489980687 1.8075000000
520 1 23.6726898223 -5.5006769981 3.6150000000
521 1 26.3029887579 -8.5494144101 -1.8075000000
522 1 25.8646055688 -6.8011533161 0.0000000000
523 1 25.4262223796 -5.0523353794 1.8075000000
524 1 24.9878391905 -3.3029260516 3.6150000000
525 1 27.6181381261 -6.3538664442 -1.8075000000
526 1 27.1797549369 -4.6045858558 0.0000000000
527 1 26.7413717478 -2.8547532486 1.8075000000
528 1 26.3029885586 -1.1043359994 3.6150000000
529 1 28.9332874942 -4.1573889145 -1.8075000000
530 1 28.4949043051 -2.4071653781 0.0000000000
531 1 28.0565211159 -0.6563925672 1.8075000000
532 1 27.6181379268 1.0949611887 3.6150000000
533 1 30.2484368624 -1.9601270473 -1.8075000000
534 1 29.8100536732 -0.2090301390 0.0000000000
535 1 29.3716704841 1.5426134768 1.8075000000
536 1 28.9332872949 3.2948343331 3.6150000000
537 1 31.5635862305 0.2377854698 -1.8075000000
538 1 31.1252030414 1.9896885463 0.0000000000
539 1 30.6868198522 3.7421337144 1.8075000000
540 1 30.2484366631 5.4951494341 3.6150000000
541 1 32.8787355987 2.4362214459 -1.8075000000
542 1 32.4403524095 4.1888625249 0.0000000000
543 1 32.0019692204 5.9420369384 1.8075000000
544 1 31.5635860312 7.6957697591 3.6150000000
545 1 34.1938849668 4.6350578646 -1.8075000000
546 1 33.7555017777 6.3883658874 0.0000000000
547 1 33.3171185885 8.1421927519 1.8075000000
548 1 32.8787353994 9.8965588054 3.6150000000
549 1 35.5090343350 6.8341757409 -1.8075000000
550 1 35.0706511458 8.5880762326 0.0000000000
551 1 34.6322679567 10.3424744939 1.8075000000
552 1 34.1938847675 12.0973850880 3.6150000000
553 1 36.8241837031 9.0334615483 -1.8075000000
554 1 36.3858005140 10.7878773473 0.0000000000
555 1 35.9474173248 12.5427632737 1.8075000000
556 1 35.5090341357 14.2981275387 3.6150000000
557 1 38.1393330712 11.2328095451 -1.8075000000
558 1 37.7009498821 12.9876624728 0.0000000000
559 1 39.4544824394 13.4321243269 -1.8075000000
560 1 22.3575406535 14.6814313215 1.8075000000
561 1 21.9191574643 -13.3840668513 3.6150000000
562 1 24.1110732108 -14.6824554729 0.0000000000
563 1 23.6726900216 -12.9370294504 1.8075000000
564 1 23.2343068325 -11.1910934616 3.6150000000
565 1 25.8646057680 -14.2366878245 -1.8075000000
566 1 25.4262225789 -12.4905048911 0.0000000000
567 1 24.9878393898 -10.7438677523 1.8075000000
568 1 24.5494562006 -8.9967152771 3.6150000000
569 1 27.1797551362 -12.0444365877 -1.8075000000
570 1 26.7413719471 -10.2971593668 0.0000000000
571 1 26.3029887579 -8.5494144101 1.8075000000
572 1 25.8646055688 -6.8011533161 3.6150000000
573 1 28.4949045043 -9.8509201725 -1.8075000000
574 1 28.0565213152 -8.1026309810 0.0000000000
575 1 27.6181381261 -6.3538664442 1.8075000000
576 1 27.1797549369 -4.6045858558 3.6150000000
577 1 29.8100538725 -7.6563238735 -1.8075000000
578 1 29.3716706834 -5.9070964238 0.0000000000
579 1 28.9332874942 -4.1573889145 1.8075000000
580 1 28.4949043051 -2.4071653781 3.6150000000
581 1 31.1252032406 -5.4608070845 -1.8075000000
582 1 30.6868200515 -3.7107084584 0.0000000000
583 1 30.2484368624 -1.9601270473 1.8075000000
584 1 29.8100536732 -0.2090301390 3.6150000000
585 1 32.4403526088 -3.2645111704 -1.8075000000
586 1 32.0019694196 -1.5136044655 0.0000000000
587 1 31.5635862305 0.2377854698 1.8075000000
588 1 31.1252030414 1.9896885463 3.6150000000
589 1 33.7555019769 -1.0675653613 -1.8075000000
590 1 33.3171187878 0.6840877788 0.0000000000
591 1 32.8787355987 2.4362214459 1.8075000000
592 1 32.4403524095 4.1888625249 3.6150000000
593 1 35.0706513451 1.1299093629 -1.8075000000
594 1 34.6322681559 2.8822467768 0.0000000000
595 1 34.1938849668 4.6350578646 1.8075000000
596 1 33.7555017777 6.3883658874 3.6150000000
597 1 36.3858007132 3.3277982181 -1.8075000000
598 1 35.9474175241 5.0807560482 0.0000000000
599 1 35.5090343350 6.8341757409 1.8075000000
600 1 35.0706511458 8.5880762326 3.6150000000
601 1 37.7009500814 5.5259920903 -1.8075000000
602 1 37.2625668922 7.2795044725 0.0000000000
603 1 36.8241837031 9.0334615483 1.8075000000
604 1 36.3858005140 10.7878773473 3.6150000000
605 1 39.0160994495 7.7243881471 -1.8075000000
606 1 38.5777162604 9.4783877076 0.0000000000
607 1 38.1393330712 11.2328095451 1.8075000000
608 1 37.7009498821 12.9876624728 3.6150000000
609 1 40.3312488177 9.9228911434 -1.8075000000
610 1 39.8928656285 11.6773101248 0.0000000000
611 1 39.4544824394 13.4321243269 1.8075000000
612 1 41.6463981858 12.1214149725 -1.8075000000
613 1 41.2080149967 13.8761867365 0.0000000000
614 1 42.9615475540 14.3198840711 -1.8075000000
615 1 24.1110732108 -14.6824554729 3.6150000000
616 1 25.8646057680 -14.2366878245 1.8075000000
617 1 25.4262225789 -12.4905048911 3.6150000000
618 1 27.6181383253 -13.7913030625 0.0000000000
619 1 27.1797551362 -12.0444365877 1.8075000000
620 1 26.7413719471 -10.2971593668 3.6150000000
621 1 29.3716708826 -13.3462647339 -1.8075000000
622 1 28.9332876935 -11.5987804971 0.0000000000
623 1 28.4949045043 -9.8509201725 1.8075000000
624 1 28.0565213152 -8.1026309810 3.6150000000
625 1 30.6868202508 -11.1535015478 -1.8075000000
626 1 30.2484370616 -9.4051109128 0.0000000000
627 1 29.8100538725 -7.6563238735 1.8075000000
628 1 29.3716706834 -5.9070964238 3.6150000000
629 1 32.0019696189 -8.9596988449 -1.8075000000
630 1 31.5635864298 -7.2104579134 0.0000000000
631 1 31.1252032406 -5.4608070845 1.8075000000
632 1 30.6868200515 -3.7107084584 3.6150000000
633 1 33.3171189871 -6.7650024139 -1.8075000000
634 1 32.8787357979 -5.0149660339 0.0000000000
635 1 32.4403526088 -3.2645111704 1.8075000000
636 1 32.0019694196 -1.5136044655 3.6150000000
637 1 34.6322683552 -4.5695438648 -1.8075000000
638 1 34.1938851661 -2.8187660547 0.0000000000