ITEM: TIMESTEP
0
ITEM: NUMBER OF ATOMS
3656
ITEM: BOX BOUNDS xy xz yz mm pp pp
-1.0009999999999999e+02 1.0009999999999999e+02 0.0000000000000000e+00
-1.4905042650000000e+01 1.4905042650000000e+01 0.0000000000000000e+00
-3.6150000000000002e+00 3.6150000000000002e+00 0.0000000000000000e+00
ITEM: ATOMS id type x y z c_csym c_energy
1 1 0.438383 13.1415 -2.7075 6.40085 11.9538
2 2 1.993e-07 7.89091 -1.8075 6.52877 -2.74797
3 1 1.31515 9.53739 -2.7075 6.62602 -3.41648
4 1 0.876766 11.364 -0.9 5.41224 -2.93496
5 1 0.438383 13.1415 0.9075 6.40085 11.9538
6 1 2.6303 11.7633 -2.7075 0.00271726 -3.56506
7 1 2.19192 13.5484 -0.9 0.000649486 -3.61681
8 1 3.94545 13.9683 -2.7075 0.000470798 -3.54318
9 2 1.31515 5.76843 -1.8075 7.88543 12.1663
10 2 0.876766 3.98184 -2.40807e-15 5.40823 -2.91684
11 2 1.993e-07 7.89091 1.8075 6.52877 -2.74797
12 1 2.19192 5.82756 -2.7075 6.618 11.8098
13 1 1.75353 7.64297 -0.9 6.0945 -2.78032
14 1 1.31515 9.53739 0.9075 6.62602 -3.41648
15 1 0.876766 11.364 2.715 5.41224 -2.93496
16 1 3.50706 8.13609 -2.7075 0.0109226 -3.57692
17 1 3.06868 9.956 -0.9 0.0109012 -3.52471
18 1 2.6303 11.7633 0.9075 0.00271726 -3.56506
19 1 2.19192 13.5484 2.715 0.000649486 -3.61681
20 1 4.82221 10.3961 -2.7075 0.00222034 -3.53737
21 1 4.38383 12.1868 -0.9 0.00104821 -3.53809
22 1 3.94545 13.9683 0.9075 0.000470798 -3.54318
23 1 6.13736 12.621 -2.7075 0.000232859 -3.5401
24 1 5.69898 14.3973 -0.9 0.00145506 -3.54175
25 2 0.876766 -3.45305 -1.8075 5.23087 -2.89418
26 2 -2.84217e-14 0.43839 -2.40807e-15 3.20008 -2.99978
27 1 1.75353 0.0639114 -2.7075 10.3125 -2.57375
28 2 0.438383 2.2083 -1.8075 5.94239 -3.45725
29 2 1.31515 5.76843 1.8075 7.88543 12.1663
30 2 0.876766 3.98184 3.615 5.40823 -2.91684
31 1 3.06868 2.30398 -2.7075 5.58288 -3.45158
32 1 2.6303 4.05778 -0.9 5.36108 -2.88219
33 1 2.19192 5.82756 0.9075 6.618 11.8098
34 1 1.75353 7.64297 2.715 6.0945 -2.78032
35 1 4.38383 4.55697 -2.7075 0.00113931 -3.56918
36 1 3.94545 6.33423 -0.9 0.00285555 -3.61759
37 1 3.50706 8.13609 0.9075 0.0109226 -3.57692
38 1 3.06868 9.956 2.715 0.0109012 -3.52471
39 1 5.69898 6.81496 -2.7075 0.00119383 -3.53851
40 1 5.2606 8.60196 -0.9 0.00225814 -3.53592
41 1 4.82221 10.3961 0.9075 0.00222034 -3.53737
42 1 4.38383 12.1868 2.715 0.00104821 -3.53809
43 1 7.01413 9.05939 -2.7075 0.000734725 -3.53846
44 1 6.57575 10.8406 -0.9 0.000712628 -3.53851
45 1 6.13736 12.621 0.9075 0.000232859 -3.5401
46 1 5.69898 14.3973 2.715 0.00145506 -3.54175
47 1 8.32928 11.2862 -2.7075 0.00028732 -3.5387
48 1 7.8909 13.0598 -0.9 0.00041039 -3.54189
49 1 9.64443 13.5008 -2.7075 0.00056998 -3.54224
50 1 1.993e-07 -7.45252 -2.7075 10.6869 -2.63096
51 2 0.438383 -5.19435 -2.40807e-15 7.67683 -3.35974
52 2 1.31515 -1.69615 -2.40807e-15 7.95644 12.4468
53 2 0.876766 -3.45305 1.8075 5.23087 -2.89418
54 2 -2.84217e-14 0.43839 3.615 3.20008 -2.99978
55 1 2.6303 -3.3869 -2.7075 5.33612 -2.87702
56 1 2.19192 -1.66817 -0.9 6.45769 11.9284
57 1 1.75353 0.0639114 0.9075 10.3125 -2.57375
58 2 0.438383 2.2083 1.8075 5.94239 -3.45725
59 1 3.94545 -1.17551 -2.7075 0.000684594 -3.61132
60 1 3.50707 0.559708 -0.9 1.57948 -3.51979
61 1 3.06868 2.30398 0.9075 5.58288 -3.45158
62 1 2.6303 4.05778 2.715 5.36108 -2.88219
63 1 5.2606 1.04678 -2.7075 0.000495481 -3.53073
64 1 4.82221 2.79625 -0.9 0.000636972 -3.51664
65 1 4.38383 4.55697 0.9075 0.00113931 -3.56918
66 1 3.94545 6.33423 2.715 0.00285555 -3.61759
67 1 6.57575 3.27782 -2.7075 0.000395794 -3.53853
68 1 6.13736 5.04045 -0.9 0.000586519 -3.53719
69 1 5.69898 6.81496 0.9075 0.00119383 -3.53851
70 1 5.2606 8.60196 2.715 0.00225814 -3.53592
71 1 7.8909 5.51194 -2.7075 0.000311597 -3.53881
72 1 7.45251 7.28209 -0.9 0.000509712 -3.53853
73 1 7.01413 9.05939 0.9075 0.000734725 -3.53846
74 1 6.57575 10.8406 2.715 0.000712628 -3.53851
75 1 9.20605 7.74162 -2.7075 0.000234115 -3.53927
76 1 8.76766 9.51259 -0.9 0.000296361 -3.53927
77 1 8.32928 11.2862 0.9075 0.00028732 -3.5387
78 1 7.8909 13.0598 2.715 0.00041039 -3.54189
79 1 10.5212 9.96311 -2.7075 0.000136482 -3.53966
80 1 10.0828 11.7317 -0.9 0.000133269 -3.53917
81 1 9.64443 13.5008 0.9075 0.00056998 -3.54224
82 1 11.8363 12.1769 -2.7075 6.79461e-05 -3.53972
83 1 11.398 13.9426 -0.9 0.000242801 -3.54172
84 1 13.1515 14.3849 -2.7075 0.000356059 -3.54156
85 1 0.876767 -10.9811 -2.7075 5.37334 -2.90689
86 1 0.438383 -9.22604 -0.9 6.11073 11.9528
87 1 1.993e-07 -7.45252 0.9075 10.6869 -2.63096
88 1 2.19192 -8.86109 -2.7075 0.0168717 -3.57933
89 1 1.75353 -7.18683 -0.9 5.43313 -3.41846
90 2 0.438383 -5.19435 3.615 7.67683 -3.35974
91 2 1.31515 -1.69615 3.615 7.95644 12.4468
92 1 3.50707 -6.76482 -2.7075 6.18593 -3.46144
93 1 3.06868 -5.08377 -0.9 5.52604 -3.44189
94 1 2.6303 -3.3869 0.9075 5.33612 -2.87702
95 1 2.19192 -1.66817 2.715 6.45769 11.9284
96 1 4.82221 -4.61361 -2.7075 0.0025579 -3.51518
97 1 4.38383 -2.90012 -0.9 0.00141632 -3.56916
98 1 3.94545 -1.17551 0.9075 0.000684594 -3.61132
99 1 3.50707 0.559708 2.715 1.57948 -3.51979
100 1 6.13736 -2.42554 -2.7075 0.000758846 -3.53794
101 1 5.69898 -0.693537 -0.9 0.000551797 -3.54086
102 1 5.2606 1.04678 0.9075 0.000495481 -3.53073
103 1 4.82221 2.79625 2.715 0.000636972 -3.51664
104 1 7.45251 -0.219981 -2.7075 0.000355472 -3.53924
105 1 7.01413 1.52491 -0.9 0.000340938 -3.53904
106 1 6.57575 3.27782 0.9075 0.000395794 -3.53853
107 1 6.13736 5.04045 2.715 0.000586519 -3.53719
108 1 8.76766 1.9951 -2.7075 0.000200084 -3.53941
109 1 8.32928 3.74979 -0.9 0.000224457 -3.53915
110 1 7.8909 5.51194 0.9075 0.000311597 -3.53881
111 1 7.45251 7.28209 2.715 0.000509712 -3.53853
112 1 10.0828 4.21424 -2.7075 0.000124307 -3.53954
113 1 9.64443 5.97519 -0.9 0.000164173 -3.53938
114 1 9.20605 7.74162 0.9075 0.000234115 -3.53927
115 1 8.76766 9.51259 2.715 0.000296361 -3.53927
116 1 11.398 6.43282 -2.7075 8.78091e-05 -3.5397
117 1 10.9596 8.19639 -0.9 0.000115233 -3.53965
118 1 10.5212 9.96311 0.9075 0.000136482 -3.53966
119 1 10.0828 11.7317 2.715 0.000133269 -3.53917
120 1 12.7131 8.64794 -2.7075 6.02474e-05 -3.53987
121 1 12.2747 10.4117 -0.9 6.88637e-05 -3.53989
122 1 11.8363 12.1769 0.9075 6.79461e-05 -3.53972
123 1 11.398 13.9426 2.715 0.000242801 -3.54172
124 1 14.0283 10.8587 -2.7075 3.71906e-05 -3.53981
125 1 13.5899 12.6215 -0.9 3.8721e-05 -3.54059
126 1 13.1515 14.3849 0.9075 0.000356059 -3.54156
127 1 15.3434 13.0656 -2.7075 0.0001811 -3.5416
128 1 3.986e-07 14.905 -0.9 10.2964 -2.58344
129 1 1.75353 -14.4867 -2.7075 1.58008 -3.51917
130 1 1.31515 -12.7341 -0.9 5.16688 -3.44706
131 1 0.876767 -10.9811 0.9075 5.37334 -2.90689
132 1 0.438383 -9.22604 2.715 6.11073 11.9528
133 1 3.06868 -12.3237 -2.7075 0.0007228 -3.5139
134 1 2.6303 -10.5848 -0.9 0.00258563 -3.56448
135 1 2.19192 -8.86109 0.9075 0.0168717 -3.57933
136 1 1.75353 -7.18683 2.715 5.43313 -3.41846
137 1 4.38383 -10.1764 -2.7075 0.00085812 -3.53833
138 1 3.94545 -8.4593 -0.9 0.00290972 -3.52689
139 1 3.50707 -6.76482 0.9075 6.18593 -3.46144
140 1 3.06868 -5.08377 2.715 5.52604 -3.44189
141 1 5.69898 -8.03277 -2.7075 0.00119676 -3.53789
142 1 5.2606 -6.32117 -0.9 0.00247416 -3.52835
143 1 4.82221 -4.61361 0.9075 0.0025579 -3.51518
144 1 4.38383 -2.90012 2.715 0.00141632 -3.56916
145 1 7.01413 -5.87233 -2.7075 0.000887704 -3.53808
146 1 6.57575 -4.15067 -0.9 0.000967671 -3.53812
147 1 6.13736 -2.42554 0.9075 0.000758846 -3.53794
148 1 5.69898 -0.693537 2.715 0.000551797 -3.54086
149 1 8.32928 -3.69147 -2.7075 0.000445444 -3.53909
150 1 7.8909 -1.95822 -0.9 0.000409278 -3.53921
151 1 7.45251 -0.219981 0.9075 0.000355472 -3.53924
152 1 7.01413 1.52491 2.715 0.000340938 -3.53904
153 1 9.64443 -1.49604 -2.7075 0.000220837 -3.53958
154 1 9.20605 0.24687 -0.9 0.000205169 -3.53956
155 1 8.76766 1.9951 0.9075 0.000200084 -3.53941
156 1 8.32928 3.74979 2.715 0.000224457 -3.53915
157 1 10.9596 0.70837 -2.7075 0.000113736 -3.53977
158 1 10.5212 2.4588 -0.9 0.000111661 -3.53968
159 1 10.0828 4.21424 0.9075 0.000124307 -3.53954
160 1 9.64443 5.97519 2.715 0.000164173 -3.53938
161 1 12.2747 2.91746 -2.7075 6.22811e-05 -3.53986
162 1 11.8363 4.67311 -0.9 6.92242e-05 -3.53978
163 1 11.398 6.43282 0.9075 8.78091e-05 -3.5397
164 1 10.9596 8.19639 2.715 0.000115233 -3.53965
165 1 13.5899 5.12785 -2.7075 3.93571e-05 -3.53993
166 1 13.1515 6.88649 -0.9 4.83648e-05 -3.53989
167 1 12.7131 8.64794 0.9075 6.02474e-05 -3.53987
168 1 12.2747 10.4117 2.715 6.88637e-05 -3.53989
169 1 14.905 7.33728 -2.7075 2.75733e-05 -3.54
170 1 14.4666 9.09715 -0.9 3.31891e-05 -3.53999
171 1 14.0283 10.8587 0.9075 3.71906e-05 -3.53981
172 1 13.5899 12.6215 2.715 3.8721e-05 -3.54059
173 1 16.2202 9.54461 -2.7075 1.91325e-05 -3.54006
174 1 15.7818 11.3046 -0.9 2.11912e-05 -3.53961
175 1 15.3434 13.0656 0.9075 0.0001811 -3.5416
176 1 17.5353 11.7495 -2.7075 1.26185e-05 -3.53978
177 1 17.0969 13.5092 -0.9 0.00016829 -3.5416
178 1 18.8505 13.9522 -2.7075 5.40924e-05 -3.54113
179 1 3.986e-07 14.905 2.715 10.2964 -2.58344
180 1 1.75353 -14.4867 0.9075 1.58008 -3.51917
181 1 1.31515 -12.7341 2.715 5.16688 -3.44706
182 1 3.50707 -14.0684 -0.9 0.00283031 -3.53286
183 1 3.06868 -12.3237 0.9075 0.0007228 -3.5139
184 1 2.6303 -10.5848 2.715 0.00258563 -3.56448
185 1 5.2606 -13.6475 -2.7075 0.00242712 -3.53914
186 1 4.82221 -11.908 -0.9 0.000355906 -3.53806
187 1 4.38383 -10.1764 0.9075 0.00085812 -3.53833
188 1 3.94545 -8.4593 2.715 0.00290972 -3.52689
189 1 6.57575 -11.4849 -2.7075 0.000176553 -3.53906
190 1 6.13736 -9.75421 -0.9 0.000418755 -3.53881
191 1 5.69898 -8.03277 0.9075 0.00119676 -3.53789
192 1 5.2606 -6.32117 2.715 0.00247416 -3.52835
193 1 7.8909 -9.32253 -2.7075 0.000252992 -3.53918
194 1 7.45251 -7.59517 -0.9 0.000544947 -3.53856
195 1 7.01413 -5.87233 0.9075 0.000887704 -3.53808
196 1 6.57575 -4.15067 2.715 0.000967671 -3.53812
197 1 9.20605 -7.15258 -2.7075 0.000276883 -3.53926
198 1 8.76766 -5.42204 -0.9 0.000398198 -3.53909
199 1 8.32928 -3.69147 0.9075 0.000445444 -3.53909
200 1 7.8909 -1.95822 2.715 0.000409278 -3.53921
201 1 10.5212 -4.97168 -2.7075 0.00020139 -3.53957
202 1 10.0828 -3.23502 -0.9 0.000225605 -3.53956
203 1 9.64443 -1.49604 0.9075 0.000220837 -3.53958
204 1 9.20605 0.24687 2.715 0.000205169 -3.53956
205 1 11.8363 -2.78089 -2.7075 0.000120316 -3.53981
206 1 11.398 -1.03786 -0.9 0.000119805 -3.5398
207 1 10.9596 0.70837 0.9075 0.000113736 -3.53977
208 1 10.5212 2.4588 2.715 0.000111661 -3.53968
209 1 13.1515 -0.58289 -2.7075 6.59537e-05 -3.53994
210 1 12.7131 1.16563 -0.9 6.2986e-05 -3.53991
211 1 12.2747 2.91746 0.9075 6.22811e-05 -3.53986
212 1 11.8363 4.67311 2.715 6.92242e-05 -3.53978
213 1 14.4666 1.61954 -2.7075 3.55631e-05 -3.54
214 1 14.0283 3.37223 -0.9 3.54633e-05 -3.53997
215 1 13.5899 5.12785 0.9075 3.93571e-05 -3.53993
216 1 13.1515 6.88649 2.715 4.83648e-05 -3.53989
217 1 15.7818 3.82405 -2.7075 2.07802e-05 -3.54005
218 1 15.3434 5.57952 -0.9 2.30029e-05 -3.54002
219 1 14.905 7.33728 0.9075 2.75733e-05 -3.54
220 1 14.4666 9.09715 2.715 3.31891e-05 -3.53999
221 1 17.0969 6.02888 -2.7075 1.38509e-05 -3.54008
222 1 16.6586 7.78594 -0.9 1.62784e-05 -3.54007
223 1 16.2202 9.54461 0.9075 1.91325e-05 -3.54006
224 1 15.7818 11.3046 2.715 2.11912e-05 -3.53961
225 1 18.4121 8.23295 -2.7075 9.93563e-06 -3.54011
226 1 17.9737 9.99071 -0.9 1.14761e-05 -3.54011
227 1 17.5353 11.7495 0.9075 1.26185e-05 -3.53978
228 1 17.0969 13.5092 2.715 0.00016829 -3.5416
229 1 19.7272 10.4357 -2.7075 7.12843e-06 -3.54015
230 1 19.2889 12.1937 -0.9 7.79903e-06 -3.54004
231 1 18.8505 13.9522 0.9075 5.40924e-05 -3.54113
232 1 21.0424 12.6371 -2.7075 1.42892e-05 -3.5405
233 1 20.604 14.3949 -0.9 8.16637e-05 -3.54097
234 1 3.50707 -14.0684 2.715 0.00283031 -3.53286
235 1 5.2606 -13.6475 0.9075 0.00242712 -3.53914
236 1 4.82221 -11.908 2.715 0.000355906 -3.53806
237 1 7.45251 14.8459 -2.7075 0.00823718 -3.54074
238 1 7.01413 -13.2223 -0.9 0.000633046 -3.53742
239 1 6.57575 -11.4849 0.9075 0.000176553 -3.53906
240 1 6.13736 -9.75421 2.715 0.000418755 -3.53881
241 1 8.76766 -12.7929 -2.7075 5.57997e-05 -3.53697
242 1 8.32928 -11.0553 -0.9 0.0001128 -3.53965
243 1 7.8909 -9.32253 0.9075 0.000252992 -3.53918
244 1 7.45251 -7.59517 2.715 0.000544947 -3.53856
245 1 10.0828 -10.6208 -2.7075 7.95626e-05 -3.53975
246 1 9.64443 -8.88517 -0.9 0.000156211 -3.53952
247 1 9.20605 -7.15258 0.9075 0.000276883 -3.53926
248 1 8.76766 -5.42204 2.715 0.000398198 -3.53909
249 1 11.398 -8.44459 -2.7075 9.73308e-05 -3.53975
250 1 10.9596 -6.70774 -0.9 0.000151442 -3.53964
251 1 10.5212 -4.97168 0.9075 0.00020139 -3.53957
252 1 10.0828 -3.23502 2.715 0.000225605 -3.53956
253 1 12.7131 -6.262 -2.7075 8.68808e-05 -3.53985
254 1 12.2747 -4.52188 -0.9 0.000108983 -3.53982
255 1 11.8363 -2.78089 0.9075 0.000120316 -3.53981
256 1 11.398 -1.03786 2.715 0.000119805 -3.5398
257 1 14.0283 -4.07293 -2.7075 6.15152e-05 -3.53996
258 1 13.5899 -2.3288 -0.9 6.64101e-05 -3.53995
259 1 13.1515 -0.58289 0.9075 6.59537e-05 -3.53994
260 1 12.7131 1.16563 2.715 6.2986e-05 -3.53991
261 1 15.3434 -1.87851 -2.7075 3.773e-05 -3.54004
262 1 14.905 -0.130544 -0.9 3.7142e-05 -3.54002
263 1 14.4666 1.61954 0.9075 3.55631e-05 -3.54
264 1 14.0283 3.37223 2.715 3.54633e-05 -3.53997
265 1 16.6586 0.319664 -2.7075 2.15061e-05 -3.54008
266 1 16.2202 2.07083 -0.9 2.06603e-05 -3.54007
267 1 15.7818 3.82405 0.9075 2.07802e-05 -3.54005
268 1 15.3434 5.57952 2.715 2.30029e-05 -3.54002
269 1 17.9737 2.52003 -2.7075 1.23862e-05 -3.54011
270 1 17.5353 4.27357 -0.9 1.25556e-05 -3.5401
271 1 17.0969 6.02888 0.9075 1.38509e-05 -3.54008
272 1 16.6586 7.78594 2.715 1.62784e-05 -3.54007
273 1 19.2889 4.72132 -2.7075 7.81737e-06 -3.54013
274 1 18.8505 6.47645 -0.9 8.58984e-06 -3.54012
275 1 18.4121 8.23295 0.9075 9.93563e-06 -3.54011
276 1 17.9737 9.99071 2.715 1.14761e-05 -3.54011
277 1 20.604 6.92262 -2.7075 5.47851e-06 -3.54015
278 1 20.1656 8.67867 -0.9 6.25434e-06 -3.54014
279 1 19.7272 10.4357 0.9075 7.12843e-06 -3.54015
280 1 19.2889 12.1937 2.715 7.79903e-06 -3.54004
281 1 21.9192 9.12338 -2.7075 4.04971e-06 -3.54016
282 1 21.4808 10.8799 -0.9 4.56697e-06 -3.54006
283 1 21.0424 12.6371 0.9075 1.42892e-05 -3.5405
284 1 20.604 14.3949 2.715 8.16637e-05 -3.54097
285 1 23.2343 11.3233 -2.7075 3.00757e-06 -3.53993
286 1 22.7959 13.08 -0.9 5.63095e-05 -3.54105
287 1 24.5495 13.5224 -2.7075 4.50722e-05 -3.54101
288 1 7.45251 14.8459 0.9075 0.00823718 -3.54074
289 1 7.01413 -13.2223 2.715 0.000633046 -3.53742
290 1 9.20605 -14.5341 -0.9 0.00451041 -3.54018
291 1 8.76766 -12.7929 0.9075 5.57997e-05 -3.53697
292 1 8.32928 -11.0553 2.715 0.0001128 -3.53965
293 1 10.9596 -14.1013 -2.7075 0.00236999 -3.54021
294 1 10.5212 -12.3597 -0.9 4.07328e-05 -3.53805
295 1 10.0828 -10.6208 0.9075 7.95626e-05 -3.53975
296 1 9.64443 -8.88517 2.715 0.000156211 -3.53952
297 1 12.2747 -11.9237 -2.7075 3.12237e-05 -3.53888
298 1 11.8363 -10.1831 -0.9 5.62845e-05 -3.53987
299 1 11.398 -8.44459 0.9075 9.73308e-05 -3.53975
300 1 10.9596 -6.70774 2.715 0.000151442 -3.53964
301 1 13.5899 -9.74332 -2.7075 3.92786e-05 -3.53997
302 1 13.1515 -8.00225 -0.9 6.12691e-05 -3.53991
303 1 12.7131 -6.262 0.9075 8.68808e-05 -3.53985
304 1 12.2747 -4.52188 2.715 0.000108983 -3.53982
305 1 14.905 -7.55901 -2.7075 3.89605e-05 -3.54001
306 1 14.4666 -5.81609 -0.9 5.14665e-05 -3.53998
307 1 14.0283 -4.07293 0.9075 6.15152e-05 -3.53996
308 1 13.5899 -2.3288 2.715 6.64101e-05 -3.53995
309 1 16.2202 -5.37038 -2.7075 3.12197e-05 -3.54005
310 1 15.7818 -3.62492 -0.9 3.58007e-05 -3.54004
311 1 15.3434 -1.87851 0.9075 3.773e-05 -3.54004
312 1 14.905 -0.130544 2.715 3.7142e-05 -3.54002
313 1 17.5353 -3.17787 -2.7075 2.13805e-05 -3.5401
314 1 17.0969 -1.42977 -0.9 2.20381e-05 -3.54009
315 1 16.6586 0.319664 0.9075 2.15061e-05 -3.54008
316 1 16.2202 2.07083 2.715 2.06603e-05 -3.54007
317 1 18.8505 -0.982361 -2.7075 1.32329e-05 -3.54013
318 1 18.4121 0.768129 -0.9 1.28323e-05 -3.54012
319 1 17.9737 2.52003 0.9075 1.23862e-05 -3.54011
320 1 17.5353 4.27357 2.715 1.25556e-05 -3.5401
321 1 20.1656 1.21517 -2.7075 7.89176e-06 -3.54014
322 1 19.7272 2.96759 -0.9 7.66131e-06 -3.54014
323 1 19.2889 4.72132 0.9075 7.81737e-06 -3.54013
324 1 18.8505 6.47645 2.715 8.58984e-06 -3.54012
325 1 21.4808 3.41382 -2.7075 4.88092e-06 -3.54016
326 1 21.0424 5.16766 -0.9 5.00662e-06 -3.54015
327 1 20.604 6.92262 0.9075 5.47851e-06 -3.54015
328 1 20.1656 8.67867 2.715 6.25434e-06 -3.54014
329 1 22.7959 5.61288 -2.7075 3.29119e-06 -3.54017
330 1 22.3575 7.36769 -0.9 3.58643e-06 -3.54017
331 1 21.9192 9.12338 0.9075 4.04971e-06 -3.54016
332 1 21.4808 10.8799 2.715 4.56697e-06 -3.54006
333 1 24.1111 7.81187 -2.7075 2.4048e-06 -3.54018
334 1 23.6727 9.56727 -0.9 2.69033e-06 -3.54018
335 1 23.2343 11.3233 0.9075 3.00757e-06 -3.53993
336 1 22.7959 13.08 2.715 5.63095e-05 -3.54105
337 1 25.4262 10.0105 -2.7075 1.82931e-06 -3.54019
338 1 24.9878 11.7662 -0.9 2.02998e-06 -3.54
339 1 24.5495 13.5224 0.9075 4.50722e-05 -3.54101
340 1 26.7414 12.2086 -2.7075 1.40076e-06 -3.54013
341 1 26.303 13.9644 -0.9 1.31651e-05 -3.54074
342 1 28.0565 14.406 -2.7075 2.26548e-05 -3.54064
343 1 9.20605 -14.5341 2.715 0.00451041 -3.54018
344 1 10.9596 -14.1013 0.9075 0.00236999 -3.54021
345 1 10.5212 -12.3597 2.715 4.07328e-05 -3.53805
346 1 12.7131 -13.6662 -0.9 0.000980294 -3.53962
347 1 12.2747 -11.9237 0.9075 3.12237e-05 -3.53888
348 1 11.8363 -10.1831 2.715 5.62845e-05 -3.53987
349 1 14.4666 -13.2293 -2.7075 0.000176038 -3.53855
350 1 14.0283 -11.4856 -0.9 2.37843e-05 -3.53973
351 1 13.5899 -9.74332 0.9075 3.92786e-05 -3.53997
352 1 13.1515 -8.00225 2.715 6.12691e-05 -3.53991
353 1 15.7818 -11.0462 -2.7075 1.77768e-05 -3.5401
354 1 15.3434 -9.30226 -0.9 2.71169e-05 -3.54004
355 1 14.905 -7.55901 0.9075 3.89605e-05 -3.54001
356 1 14.4666 -5.81609 2.715 5.14665e-05 -3.53998
357 1 17.0969 -8.86047 -2.7075 1.8611e-05 -3.54009
358 1 16.6586 -7.11541 -0.9 2.50176e-05 -3.54007
359 1 16.2202 -5.37038 0.9075 3.12197e-05 -3.54005
360 1 15.7818 -3.62492 2.715 3.58007e-05 -3.54004
361 1 18.4121 -6.67177 -2.7075 1.62248e-05 -3.54011
362 1 17.9737 -4.92507 -0.9 1.9318e-05 -3.5401
363 1 17.5353 -3.17787 0.9075 2.13805e-05 -3.5401
364 1 17.0969 -1.42977 2.715 2.20381e-05 -3.54009
365 1 19.7272 -4.48025 -2.7075 1.21753e-05 -3.54014
366 1 19.2889 -2.73172 -0.9 1.30792e-05 -3.54013
367 1 18.8505 -0.982361 0.9075 1.32329e-05 -3.54013
368 1 18.4121 0.768129 2.715 1.28323e-05 -3.54012
369 1 21.0424 -2.28639 -2.7075 8.18932e-06 -3.54015
370 1 20.604 -0.536091 -0.9 8.16609e-06 -3.54015
371 1 20.1656 1.21517 0.9075 7.89176e-06 -3.54014
372 1 19.7272 2.96759 2.715 7.66131e-06 -3.54014
373 1 22.3575 -0.0907877 -2.7075 5.17523e-06 -3.54017
374 1 21.9192 1.66103 -0.9 4.99683e-06 -3.54016
375 1 21.4808 3.41382 0.9075 4.88092e-06 -3.54016
376 1 21.0424 5.16766 2.715 5.00662e-06 -3.54015
377 1 23.6727 2.10593 -2.7075 3.25155e-06 -3.54018
378 1 23.2343 3.85897 -0.9 3.19557e-06 -3.54017
379 1 22.7959 5.61288 0.9075 3.29119e-06 -3.54017
380 1 22.3575 7.36769 2.715 3.58643e-06 -3.54017
381 1 24.9878 4.30325 -2.7075 2.1449e-06 -3.54018
382 1 24.5495 6.05719 -0.9 2.21577e-06 -3.54018
383 1 24.1111 7.81187 0.9075 2.4048e-06 -3.54018
384 1 23.6727 9.56727 2.715 2.69033e-06 -3.54018
385 1 26.303 6.50076 -2.7075 1.52456e-06 -3.54019
386 1 25.8646 8.25532 -0.9 1.64827e-06 -3.54019
387 1 25.4262 10.0105 0.9075 1.82931e-06 -3.54019
388 1 24.9878 11.7662 2.715 2.02998e-06 -3.54
389 1 27.6181 8.69817 -2.7075 1.15261e-06 -3.54019
390 1 27.1798 10.4531 -0.9 1.27036e-06 -3.5402
391 1 26.7414 12.2086 0.9075 1.40076e-06 -3.54013
392 1 26.303 13.9644 2.715 1.31651e-05 -3.54074
393 1 28.9333 10.8953 -2.7075 8.99255e-07 -3.54014
394 1 28.4949 12.6505 -0.9 5.43258e-06 -3.5404
395 1 28.0565 14.406 0.9075 2.26548e-05 -3.54064
396 1 30.2484 13.0921 -2.7075 1.85213e-05 -3.54071
397 1 12.7131 -13.6662 2.715 0.000980294 -3.53962
398 1 14.905 14.8358 -0.9 0.00294268 -3.5408
399 1 14.4666 -13.2293 0.9075 0.000176038 -3.53855
400 1 14.0283 -11.4856 2.715 2.37843e-05 -3.53973
401 1 16.6586 -14.5368 -2.7075 0.00136771 -3.54029
402 1 16.2202 -12.791 -0.9 1.12713e-05 -3.53844
403 1 15.7818 -11.0462 0.9075 1.77768e-05 -3.5401
404 1 15.3434 -9.30226 2.715 2.71169e-05 -3.54004
405 1 17.9737 -12.3518 -2.7075 8.81368e-06 -3.53911
406 1 17.5353 -10.6059 -0.9 1.30627e-05 -3.54011
407 1 17.0969 -8.86047 0.9075 1.8611e-05 -3.54009
408 1 16.6586 -7.11541 2.715 2.50176e-05 -3.54007
409 1 19.2889 -10.165 -2.7075 9.48449e-06 -3.54014
410 1 18.8505 -8.41831 -0.9 1.2751e-05 -3.54012
411 1 18.4121 -6.67177 0.9075 1.62248e-05 -3.54011
412 1 17.9737 -4.92507 2.715 1.9318e-05 -3.5401
413 1 20.604 -7.97602 -2.7075 8.74958e-06 -3.54015
414 1 20.1656 -6.22826 -0.9 1.06342e-05 -3.54014
415 1 19.7272 -4.48025 0.9075 1.21753e-05 -3.54014
416 1 19.2889 -2.73172 2.715 1.30792e-05 -3.54013
417 1 21.9192 -5.785 -2.7075 7.0502e-06 -3.54016
418 1 21.4808 -4.03594 -0.9 7.81275e-06 -3.54016
419 1 21.0424 -2.28639 0.9075 8.18932e-06 -3.54015
420 1 20.604 -0.536091 2.715 8.16609e-06 -3.54015
421 1 23.2343 -3.59215 -2.7075 5.10382e-06 -3.54017
422 1 22.7959 -1.84179 -0.9 5.24548e-06 -3.54017
423 1 22.3575 -0.0907877 0.9075 5.17523e-06 -3.54017
424 1 21.9192 1.66103 2.715 4.99683e-06 -3.54016
425 1 24.5495 -1.39785 -2.7075 3.43484e-06 -3.54018
426 1 24.1111 0.353694 -0.9 3.36427e-06 -3.54018
427 1 23.6727 2.10593 0.9075 3.25155e-06 -3.54018
428 1 23.2343 3.85897 2.715 3.19557e-06 -3.54017
429 1 25.8646 0.797477 -2.7075 2.24006e-06 -3.54019
430 1 25.4262 2.55003 -0.9 2.16999e-06 -3.54019
431 1 24.9878 4.30325 0.9075 2.1449e-06 -3.54018
432 1 24.5495 6.05719 2.715 2.21577e-06 -3.54018
433 1 27.1798 2.99345 -2.7075 1.4821e-06 -3.54019
434 1 26.7414 4.74681 -0.9 1.47259e-06 -3.54019
435 1 26.303 6.50076 0.9075 1.52456e-06 -3.54019
436 1 25.8646 8.25532 2.715 1.64827e-06 -3.54019
437 1 28.4949 5.18976 -2.7075 1.03195e-06 -3.5402
438 1 28.0565 6.94371 -0.9 1.06997e-06 -3.54019
439 1 27.6181 8.69817 0.9075 1.15261e-06 -3.54019
440 1 27.1798 10.4531 2.715 1.27036e-06 -3.5402
441 1 29.8101 7.38614 -2.7075 7.64616e-07 -3.5402
442 1 29.3717 9.14052 -0.9 8.20877e-07 -3.5402
443 1 28.9333 10.8953 0.9075 8.99255e-07 -3.54014
444 1 28.4949 12.6505 2.715 5.43258e-06 -3.5404
445 1 31.1252 9.58244 -2.7075 5.94477e-07 -3.5402
446 1 30.6868 11.3371 -0.9 6.47743e-07 -3.54006
447 1 30.2484 13.0921 0.9075 1.85213e-05 -3.54071
448 1 32.4404 11.7785 -2.7075 4.74046e-07 -3.5401
449 1 32.002 13.5334 -0.9 1.36764e-05 -3.54068
450 1 33.7555 13.9744 -2.7075 3.79462e-06 -3.54052
451 1 14.905 14.8358 2.715 0.00294268 -3.5408
452 1 16.6586 -14.5368 0.9075 0.00136771 -3.54029
453 1 16.2202 -12.791 2.715 1.12713e-05 -3.53844
454 1 18.4121 -14.0984 -0.9 0.000672575 -3.54025
455 1 17.9737 -12.3518 0.9075 8.81368e-06 -3.53911
456 1 17.5353 -10.6059 2.715 1.30627e-05 -3.54011
457 1 20.1656 -13.6594 -2.7075 0.000260886 -3.5399
458 1 19.7272 -11.912 -0.9 6.7689e-06 -3.53956
459 1 19.2889 -10.165 0.9075 9.48449e-06 -3.54014
460 1 18.8505 -8.41831 2.715 1.2751e-05 -3.54012
461 1 21.4808 -11.4716 -2.7075 5.12732e-06 -3.54001
462 1 21.0424 -9.72376 -0.9 6.83747e-06 -3.54016
463 1 20.604 -7.97602 0.9075 8.74958e-06 -3.54015
464 1 20.1656 -6.22826 2.715 1.06342e-05 -3.54014
465 1 22.7959 -9.28239 -2.7075 4.91385e-06 -3.54017
466 1 22.3575 -7.53375 -0.9 6.02875e-06 -3.54017
467 1 21.9192 -5.785 0.9075 7.0502e-06 -3.54016
468 1 21.4808 -4.03594 2.715 7.81275e-06 -3.54016
469 1 24.1111 -7.09158 -2.7075 4.17979e-06 -3.54018
470 1 23.6727 -5.34202 -0.9 4.73185e-06 -3.54018
471 1 23.2343 -3.59215 0.9075 5.10382e-06 -3.54017
472 1 22.7959 -1.84179 2.715 5.24548e-06 -3.54017
473 1 25.4262 -4.89936 -2.7075 3.21725e-06 -3.54019
474 1 24.9878 -3.14882 -0.9 3.39403e-06 -3.54018
475 1 24.5495 -1.39785 0.9075 3.43484e-06 -3.54018
476 1 24.1111 0.353694 2.715 3.36427e-06 -3.54018
477 1 26.7414 -2.70594 -2.7075 2.29701e-06 -3.54019
478 1 26.303 -0.954482 -0.9 2.29742e-06 -3.54019
479 1 25.8646 0.797477 0.9075 2.24006e-06 -3.54019
480 1 25.4262 2.55003 2.715 2.16999e-06 -3.54019
481 1 28.0565 -0.511617 -2.7075 1.56799e-06 -3.5402
482 1 27.6181 1.24066 -0.9 1.52521e-06 -3.54019
483 1 27.1798 2.99345 0.9075 1.4821e-06 -3.54019
484 1 26.7414 4.74681 2.715 1.47259e-06 -3.54019
485 1 29.3717 1.68334 -2.7075 1.06018e-06 -3.5402
486 1 28.9333 3.43631 -0.9 1.03384e-06 -3.5402
487 1 28.4949 5.18976 0.9075 1.03195e-06 -3.5402
488 1 28.0565 6.94371 2.715 1.06997e-06 -3.54019
489 1 30.6868 3.87869 -2.7075 7.35134e-07 -3.5402
490 1 30.2484 5.6322 -0.9 7.36725e-07 -3.5402
491 1 29.8101 7.38614 0.9075 7.64616e-07 -3.5402
492 1 29.3717 9.14052 2.715 8.20877e-07 -3.5402
493 1 32.002 6.07422 -2.7075 5.34921e-07 -3.5402
494 1 31.5636 7.82815 -0.9 5.55487e-07 -3.5402
495 1 31.1252 9.58244 0.9075 5.94477e-07 -3.5402
496 1 30.6868 11.3371 2.715 6.47743e-07 -3.54006
497 1 33.3171 8.26978 -2.7075 4.09687e-07 -3.54021
498 1 32.8787 10.024 -0.9 4.37155e-07 -3.54021
499 1 32.4404 11.7785 0.9075 4.74046e-07 -3.5401
500 1 32.002 13.5334 2.715 1.36764e-05 -3.54068
501 1 34.6323 10.4653 -2.7075 3.26008e-07 -3.54021
502 1 34.1939 12.2197 -0.9 3.52002e-07 -3.54017
503 1 33.7555 13.9744 0.9075 3.79462e-06 -3.54052
504 1 35.9474 12.6606 -2.7075 2.19467e-06 -3.54033
505 1 35.509 14.4152 -0.9 7.52227e-06 -3.54047
506 1 18.4121 -14.0984 2.715 0.000672575 -3.54025
507 1 20.1656 -13.6594 0.9075 0.000260886 -3.5399
508 1 19.7272 -11.912 2.715 6.7689e-06 -3.53956
509 1 22.3575 14.8418 -2.7075 0.00084788 -3.5406
510 1 21.9192 -13.2198 -0.9 4.68708e-05 -3.53933
511 1 21.4808 -11.4716 0.9075 5.12732e-06 -3.54001
512 1 21.0424 -9.72376 2.715 6.83747e-06 -3.54016
513 1 23.6727 -12.7799 -2.7075 2.9193e-06 -3.53928
514 1 23.2343 -11.0311 -0.9 3.84761e-06 -3.54019
515 1 22.7959 -9.28239 0.9075 4.91385e-06 -3.54017
516 1 22.3575 -7.53375 2.715 6.02875e-06 -3.54017
517 1 24.9878 -10.5903 -2.7075 2.87137e-06 -3.54019
518 1 24.5495 -8.84098 -0.9 3.53162e-06 -3.54018
519 1 24.1111 -7.09158 0.9075 4.17979e-06 -3.54018
520 1 23.6727 -5.34202 2.715 4.73185e-06 -3.54018
521 1 26.303 -8.39961 -2.7075 2.54465e-06 -3.54019
522 1 25.8646 -6.64958 -0.9 2.92047e-06 -3.54019
523 1 25.4262 -4.89936 0.9075 3.21725e-06 -3.54019
524 1 24.9878 -3.14882 2.715 3.39403e-06 -3.54018
525 1 27.6181 -6.20776 -2.7075 2.05887e-06 -3.54019
526 1 27.1798 -4.457 -0.9 2.21692e-06 -3.54019
527 1 26.7414 -2.70594 0.9075 2.29701e-06 -3.54019
528 1 26.303 -0.954482 2.715 2.29742e-06 -3.54019
529 1 28.9333 -4.01494 -2.7075 1.54849e-06 -3.5402
530 1 28.4949 -2.26346 -0.9 1.58145e-06 -3.5402
531 1 28.0565 -0.511617 0.9075 1.56799e-06 -3.5402
532 1 27.6181 1.24066 2.715 1.52521e-06 -3.54019
533 1 30.2484 -1.82134 -2.7075 1.107e-06 -3.5402
534 1 29.8101 -0.0691906 -0.9 1.09076e-06 -3.5402
535 1 29.3717 1.68334 0.9075 1.06018e-06 -3.5402
536 1 28.9333 3.43631 2.715 1.03384e-06 -3.5402
537 1 31.5636 0.37285 -2.7075 7.72464e-07 -3.5402
538 1 31.1252 2.12558 -0.9 7.51098e-07 -3.5402
539 1 30.6868 3.87869 0.9075 7.35134e-07 -3.5402
540 1 30.2484 5.6322 2.715 7.36725e-07 -3.5402
541 1 32.8787 2.56744 -2.7075 5.41521e-07 -3.54021
542 1 32.4404 4.32065 -0.9 5.31939e-07 -3.5402
543 1 32.002 6.07422 0.9075 5.34921e-07 -3.5402
544 1 31.5636 7.82815 2.715 5.55487e-07 -3.5402
545 1 34.1939 4.76227 -2.7075 3.91078e-07 -3.54021
546 1 33.7555 6.51587 -0.9 3.94419e-07 -3.54021
547 1 33.3171 8.26978 0.9075 4.09687e-07 -3.54021
548 1 32.8787 10.024 2.715 4.37155e-07 -3.54021
549 1 35.509 6.9572 -2.7075 2.94939e-07 -3.54021
550 1 35.0707 8.7111 -0.9 3.0636e-07 -3.54021
551 1 34.6323 10.4653 0.9075 3.26008e-07 -3.54021
552 1 34.1939 12.2197 2.715 3.52002e-07 -3.54017
553 1 36.8242 9.15215 -2.7075 2.32022e-07 -3.54021
554 1 36.3858 10.9063 -0.9 2.46275e-07 -3.54017
555 1 35.9474 12.6606 0.9075 2.19467e-06 -3.54033
556 1 35.509 14.4152 2.715 7.52227e-06 -3.54047
557 1 38.1393 11.347 -2.7075 1.88265e-07 -3.54013
558 1 37.7009 13.1013 -0.9 6.81186e-06 -3.54052
559 1 39.4545 13.5418 -2.7075 4.78119e-06 -3.5405
560 1 22.3575 14.8418 0.9075 0.00084788 -3.5406
561 1 21.9192 -13.2198 2.715 4.68708e-05 -3.53933
562 1 24.1111 -14.5289 -0.9 0.000392514 -3.54028
563 1 23.6727 -12.7799 0.9075 2.9193e-06 -3.53928
564 1 23.2343 -11.0311 2.715 3.84761e-06 -3.54019
565 1 25.8646 -14.0893 -2.7075 0.000196046 -3.54024
566 1 25.4262 -12.3398 -0.9 2.26193e-06 -3.53963
567 1 24.9878 -10.5903 0.9075 2.87137e-06 -3.54019
568 1 24.5495 -8.84098 2.715 3.53162e-06 -3.54018
569 1 27.1798 -11.8995 -2.7075 1.74097e-06 -3.53987
570 1 26.7414 -10.1495 -0.9 2.13771e-06 -3.54019
571 1 26.303 -8.39961 0.9075 2.54465e-06 -3.54019
572 1 25.8646 -6.64958 2.715 2.92047e-06 -3.54019
573 1 28.4949 -9.70876 -2.7075 1.59169e-06 -3.5402
574 1 28.0565 -7.95832 -0.9 1.84164e-06 -3.5402
575 1 27.6181 -6.20776 0.9075 2.05887e-06 -3.54019
576 1 27.1798 -4.457 2.715 2.21692e-06 -3.54019
577 1 29.8101 -7.51714 -2.7075 1.34067e-06 -3.5402
578 1 29.3717 -5.76614 -0.9 1.46567e-06 -3.5402
579 1 28.9333 -4.01494 0.9075 1.54849e-06 -3.5402
580 1 28.4949 -2.26346 2.715 1.58145e-06 -3.5402
581 1 31.1252 -5.32473 -2.7075 1.05415e-06 -3.5402
582 1 30.6868 -3.57316 -0.9 1.09637e-06 -3.5402
583 1 30.2484 -1.82134 0.9075 1.107e-06 -3.5402
584 1 29.8101 -0.0691906 2.715 1.09076e-06 -3.5402
585 1 32.4404 -3.13165 -2.7075 7.86685e-07 -3.5402
586 1 32.002 -1.37954 -0.9 7.87292e-07 -3.5402
587 1 31.5636 0.37285 0.9075 7.72464e-07 -3.5402
588 1 31.1252 2.12558 2.715 7.51098e-07 -3.5402
589 1 33.7555 -0.938037 -2.7075 5.68446e-07 -3.54021
590 1 33.3171 0.814553 -0.9 5.56257e-07 -3.54021
591 1 32.8787 2.56744 0.9075 5.41521e-07 -3.54021
592 1 32.4404 4.32065 2.715 5.31939e-07 -3.5402
593 1 35.0707 1.25596 -2.7075 4.06831e-07 -3.54021
594 1 34.6323 3.00897 -0.9 3.96742e-07 -3.54021
595 1 34.1939 4.76227 0.9075 3.91078e-07 -3.54021
596 1 33.7555 6.51587 2.715 3.94419e-07 -3.54021
597 1 36.3858 3.45022 -2.7075 2.94986e-07 -3.54021
598 1 35.9474 5.20358 -0.9 2.91723e-07 -3.54021
599 1 35.509 6.9572 0.9075 2.94939e-07 -3.54021
600 1 35.0707 8.7111 2.715 3.0636e-07 -3.54021
601 1 37.701 5.64462 -2.7075 2.20518e-07 -3.54021
602 1 37.2626 7.39827 -0.9 2.2341e-07 -3.54021
603 1 36.8242 9.15215 0.9075 2.32022e-07 -3.54021
604 1 36.3858 10.9063 2.715 2.46275e-07 -3.54017
605 1 39.0161 7.83909 -2.7075 1.71242e-07 -3.54021