#LAMMPS data file
3656 atoms
2 atom types
-125.2250000000 125.2250000000 xlo xhi
-14.9050426500 14.9050426500 ylo yhi
-3.6150000000 3.6150000000 zlo zhi
0.0 0.0 0.0 xy xz yz

Atoms # atomic

1 1 0.664422 13.393001 -3.160257
2 1 0.289722 7.734925 -3.160257
3 1 1.355226 9.893891 -3.160257
4 1 1.000738 11.516563 -1.352757
5 1 0.664422 13.393001 0.454743
6 1 2.774810 12.028185 -3.160257
7 1 2.360216 13.779121 -1.352757
8 1 4.068620 14.252269 -3.160257
9 1 1.000738 4.064042 -3.160257
10 1 0.664422 5.940480 -1.352757
11 1 0.289722 7.734925 0.454743
12 1 2.360216 6.326600 -3.160257
13 1 1.893607 8.176118 -1.352757
14 1 1.355226 9.893891 0.454743
15 1 1.000738 11.516563 2.262243
16 1 3.617003 8.563406 -3.160257
17 1 3.208368 10.307655 -1.352757
18 1 2.774810 12.028185 0.454743
19 1 2.360216 13.779121 2.262243
20 1 4.967176 10.735600 -3.160257
21 1 4.532638 12.488185 -1.352757
22 1 4.068620 14.252269 0.454743
23 1 6.270616 12.936020 -3.160257
24 1 5.821172 14.691149 -1.352757
25 1 0.664422 -1.512041 -3.160257
26 1 0.289722 0.282403 -1.352757
27 1 1.893607 0.723597 -3.160257
28 1 1.355226 2.441369 -1.352757
29 1 1.000738 4.064042 0.454743
30 1 0.664422 5.940480 2.262243
31 1 3.208368 2.855134 -3.160257
32 1 2.774810 4.575664 -1.352757
33 1 2.360216 6.326600 0.454743
34 1 1.893607 8.176118 2.262243
35 1 4.532638 5.035663 -3.160257
36 1 4.068620 6.799748 -1.352757
37 1 3.617003 8.563406 0.454743
38 1 3.208368 10.307655 2.262243
39 1 5.821172 7.238628 -3.160257
40 1 5.388984 8.985464 -1.352757
41 1 4.967176 10.735600 0.454743
42 1 4.532638 12.488185 2.262243
43 1 7.150395 9.422058 -3.160257
44 1 6.715862 11.175731 -1.352757
45 1 6.270616 12.936020 0.454743
46 1 5.821172 14.691149 2.262243
47 1 8.462893 11.617770 -3.160257
48 1 8.020453 13.373353 -1.352757
49 1 9.776098 13.809627 -3.160257
50 1 0.289722 -7.170118 -3.160257
51 1 1.355226 -5.011152 -3.160257
52 1 1.000738 -3.388480 -1.352757
53 1 0.664422 -1.512041 0.454743
54 1 0.289722 0.282403 2.262243
55 1 2.774810 -2.876857 -3.160257
56 1 2.360216 -1.125922 -1.352757
57 1 1.893607 0.723597 0.454743
58 1 1.355226 2.441369 2.262243
59 1 4.068620 -0.652774 -3.160257
60 1 3.617003 1.110884 -1.352757
61 1 3.208368 2.855134 0.454743
62 1 2.774810 4.575664 2.262243
63 1 5.388984 1.532943 -3.160257
64 1 4.967176 3.283079 -1.352757
65 1 4.532638 5.035663 0.454743
66 1 4.068620 6.799748 2.262243
67 1 6.715862 3.723210 -3.160257
68 1 6.270616 5.483498 -1.352757
69 1 5.821172 7.238628 0.454743
70 1 5.388984 8.985464 2.262243
71 1 8.020453 5.920831 -3.160257
72 1 7.582969 7.672567 -1.352757
73 1 7.150395 9.422058 0.454743
74 1 6.715862 11.175731 2.262243
75 1 9.340233 8.109190 -3.160257
76 1 8.903671 9.862234 -1.352757
77 1 8.462893 11.617770 0.454743
78 1 8.020453 13.373353 2.262243
79 1 10.654804 10.302151 -3.160257
80 1 10.214581 12.056543 -1.352757
81 1 9.776098 13.809627 0.454743
82 1 11.968701 12.494245 -3.160257
83 1 11.531234 14.247149 -1.352757
84 1 13.284944 14.685569 -3.160257
85 1 1.000738 -10.841001 -3.160257
86 1 0.664422 -8.964563 -1.352757
87 1 0.289722 -7.170118 0.454743
88 1 2.360216 -8.578443 -3.160257
89 1 1.893607 -6.728924 -1.352757
90 1 1.355226 -5.011152 0.454743
91 1 1.000738 -3.388480 2.262243
92 1 3.617003 -6.341637 -3.160257
93 1 3.208368 -4.597387 -1.352757
94 1 2.774810 -2.876857 0.454743
95 1 2.360216 -1.125922 2.262243
96 1 4.967176 -4.169442 -3.160257
97 1 4.532638 -2.416858 -1.352757
98 1 4.068620 -0.652774 0.454743
99 1 3.617003 1.110884 2.262243
100 1 6.270616 -1.969023 -3.160257
101 1 5.821172 -0.213893 -1.352757
102 1 5.388984 1.532943 0.454743
103 1 4.967176 3.283079 2.262243
104 1 7.582969 0.220045 -3.160257
105 1 7.150395 1.969536 -1.352757
106 1 6.715862 3.723210 0.454743
107 1 6.270616 5.483498 2.262243
108 1 8.903671 2.409713 -3.160257
109 1 8.462893 4.165249 -1.352757
110 1 8.020453 5.920831 0.454743
111 1 7.582969 7.672567 2.262243
112 1 10.214581 4.604021 -3.160257
113 1 9.776098 6.357106 -1.352757
114 1 9.340233 8.109190 0.454743
115 1 8.903671 9.862234 2.262243
116 1 11.531234 6.794627 -3.160257
117 1 11.093850 8.547875 -1.352757
118 1 10.654804 10.302151 0.454743
119 1 10.214581 12.056543 2.262243
120 1 12.846432 8.986824 -3.160257
121 1 12.407324 10.740782 -1.352757
122 1 11.968701 12.494245 0.454743
123 1 11.531234 14.247149 2.262243
124 1 14.160906 11.178912 -3.160257
125 1 13.722853 12.932212 -1.352757
126 1 13.284944 14.685569 0.454743
127 1 15.476469 13.370545 -3.160257
128 1 0.289722 -14.622639 -1.352757
129 1 1.893607 -14.181446 -3.160257
130 1 1.355226 -12.463673 -1.352757
131 1 1.000738 -10.841001 0.454743
132 1 0.664422 -8.964563 2.262243
133 1 3.208368 -12.049909 -3.160257
134 1 2.774810 -10.329379 -1.352757
135 1 2.360216 -8.578443 0.454743
136 1 1.893607 -6.728924 2.262243
137 1 4.532638 -9.869379 -3.160257
138 1 4.068620 -8.105295 -1.352757
139 1 3.617003 -6.341637 0.454743
140 1 3.208368 -4.597387 2.262243
141 1 5.821172 -7.666415 -3.160257
142 1 5.388984 -5.919578 -1.352757
143 1 4.967176 -4.169442 0.454743
144 1 4.532638 -2.416858 2.262243
145 1 7.150395 -5.482985 -3.160257
146 1 6.715862 -3.729312 -1.352757
147 1 6.270616 -1.969023 0.454743
148 1 5.821172 -0.213893 2.262243
149 1 8.462893 -3.287272 -3.160257
150 1 8.020453 -1.531690 -1.352757
151 1 7.582969 0.220045 0.454743
152 1 7.150395 1.969536 2.262243
153 1 9.776098 -1.095415 -3.160257
154 1 9.340233 0.656668 -1.352757
155 1 8.903671 2.409713 0.454743
156 1 8.462893 4.165249 2.262243
157 1 11.093850 1.095354 -3.160257
158 1 10.654804 2.849630 -1.352757
159 1 10.214581 4.604021 0.454743
160 1 9.776098 6.357106 2.262243
161 1 12.407324 3.288261 -3.160257
162 1 11.968701 5.041723 -1.352757
163 1 11.531234 6.794627 0.454743
164 1 11.093850 8.547875 2.262243
165 1 13.722853 5.479691 -3.160257
166 1 13.284944 7.233048 -1.352757
167 1 12.846432 8.986824 0.454743
168 1 12.407324 10.740782 2.262243
169 1 15.038101 7.671633 -3.160257
170 1 14.599444 9.425352 -1.352757
171 1 14.160906 11.178912 0.454743
172 1 13.722853 12.932212 2.262243
173 1 16.352894 9.863643 -3.160257
174 1 15.914628 11.617097 -1.352757
175 1 15.476469 13.370545 0.454743
176 1 17.668167 12.055425 -3.160257
177 1 17.229825 13.808982 -1.352757
178 1 18.983189 14.247377 -3.160257
179 1 0.289722 -14.622639 2.262243
180 1 1.893607 -14.181446 0.454743
181 1 1.355226 -12.463673 2.262243
182 1 3.617003 -13.794158 -1.352757
183 1 3.208368 -12.049909 0.454743
184 1 2.774810 -10.329379 2.262243
185 1 5.388984 -13.372100 -3.160257
186 1 4.967176 -11.621964 -1.352757
187 1 4.532638 -9.869379 0.454743
188 1 4.068620 -8.105295 2.262243
189 1 6.715862 -11.181833 -3.160257
190 1 6.270616 -9.421544 -1.352757
191 1 5.821172 -7.666415 0.454743
192 1 5.388984 -5.919578 2.262243
193 1 8.020453 -8.984211 -3.160257
194 1 7.582969 -7.232476 -1.352757
195 1 7.150395 -5.482985 0.454743
196 1 6.715862 -3.729312 2.262243
197 1 9.340233 -6.795853 -3.160257
198 1 8.903671 -5.042808 -1.352757
199 1 8.462893 -3.287272 0.454743
200 1 8.020453 -1.531690 2.262243
201 1 10.654804 -4.602892 -3.160257
202 1 10.214581 -2.848500 -1.352757
203 1 9.776098 -1.095415 0.454743
204 1 9.340233 0.656668 2.262243
205 1 11.968701 -2.410798 -3.160257
206 1 11.531234 -0.657894 -1.352757
207 1 11.093850 1.095354 0.454743
208 1 10.654804 2.849630 2.262243
209 1 13.284944 -0.219473 -3.160257
210 1 12.846432 1.534303 -1.352757
211 1 12.407324 3.288261 0.454743
212 1 11.968701 5.041723 2.262243
213 1 14.599444 1.972831 -3.160257
214 1 14.160906 3.726390 -1.352757
215 1 13.722853 5.479691 0.454743
216 1 13.284944 7.233048 2.262243
217 1 15.914628 4.164575 -3.160257
218 1 15.476469 5.918024 -1.352757
219 1 15.038101 7.671633 0.454743
220 1 14.599444 9.425352 2.262243
221 1 17.229825 6.356461 -3.160257
222 1 16.791353 8.110076 -1.352757
223 1 16.352894 9.863643 0.454743
224 1 15.914628 11.617097 2.262243
225 1 18.544779 8.548415 -3.160257
226 1 18.106443 10.301927 -1.352757
227 1 17.668167 12.055425 0.454743
228 1 17.229825 13.808982 2.262243
229 1 19.859933 10.740264 -3.160257
230 1 19.421589 12.493807 -1.352757
231 1 18.983189 14.247377 0.454743
232 1 21.175001 12.932179 -3.160257
233 1 20.736617 14.685730 -1.352757
234 1 3.617003 -13.794158 2.262243
235 1 5.388984 -13.372100 0.454743
236 1 4.967176 -11.621964 2.262243
237 1 7.582969 -14.684997 -3.160257
238 1 7.150395 -12.935506 -1.352757
239 1 6.715862 -11.181833 0.454743
240 1 6.270616 -9.421544 2.262243
241 1 8.903671 -12.495330 -3.160257
242 1 8.462893 -10.739794 -1.352757
243 1 8.020453 -8.984211 0.454743
244 1 7.582969 -7.232476 2.262243
245 1 10.214581 -10.301021 -3.160257
246 1 9.776098 -8.547937 -1.352757
247 1 9.340233 -6.795853 0.454743
248 1 8.903671 -5.042808 2.262243
249 1 11.531234 -8.110415 -3.160257
250 1 11.093850 -6.357168 -1.352757
251 1 10.654804 -4.602892 0.454743
252 1 10.214581 -2.848500 2.262243
253 1 12.846432 -5.918218 -3.160257
254 1 12.407324 -4.164261 -1.352757
255 1 11.968701 -2.410798 0.454743
256 1 11.531234 -0.657894 2.262243
257 1 14.160906 -3.726131 -3.160257
258 1 13.722853 -1.972830 -1.352757
259 1 13.284944 -0.219473 0.454743
260 1 12.846432 1.534303 2.262243
261 1 15.476469 -1.534497 -3.160257
262 1 15.038101 0.219112 -1.352757
263 1 14.599444 1.972831 0.454743
264 1 14.160906 3.726390 2.262243
265 1 16.791353 0.657555 -3.160257
266 1 16.352894 2.411122 -1.352757
267 1 15.914628 4.164575 0.454743
268 1 15.476469 5.918024 2.262243
269 1 18.106443 2.849406 -3.160257
270 1 17.668167 4.602904 -1.352757
271 1 17.229825 6.356461 0.454743
272 1 16.791353 8.110076 2.262243
273 1 19.421589 5.041285 -3.160257
274 1 18.983189 6.794856 -1.352757
275 1 18.544779 8.548415 0.454743
276 1 18.106443 10.301927 2.262243
277 1 20.736617 7.233209 -3.160257
278 1 20.298260 8.986742 -1.352757
279 1 19.859933 10.740264 0.454743
280 1 19.421589 12.493807 2.262243
281 1 22.051726 9.425086 -3.160257
282 1 21.613375 11.178626 -1.352757
283 1 21.175001 12.932179 0.454743
284 1 20.736617 14.685730 2.262243
285 1 23.366807 11.616987 -3.160257
286 1 22.928436 13.370534 -1.352757
287 1 24.681884 13.808883 -3.160257
288 1 7.582969 -14.684997 0.454743
289 1 7.150395 -12.935506 2.262243
290 1 9.340233 -14.248374 -1.352757
291 1 8.903671 -12.495330 0.454743
292 1 8.462893 -10.739794 2.262243
293 1 11.093850 -13.809689 -3.160257
294 1 10.654804 -12.055413 -1.352757
295 1 10.214581 -10.301021 0.454743
296 1 9.776098 -8.547937 2.262243
297 1 12.407324 -11.616782 -3.160257
298 1 11.968701 -9.863319 -1.352757
299 1 11.531234 -8.110415 0.454743
300 1 11.093850 -6.357168 2.262243
301 1 13.722853 -9.425352 -3.160257
302 1 13.284944 -7.671995 -1.352757
303 1 12.846432 -5.918218 0.454743
304 1 12.407324 -4.164261 2.262243
305 1 15.038101 -7.233409 -3.160257
306 1 14.599444 -5.479691 -1.352757
307 1 14.160906 -3.726131 0.454743
308 1 13.722853 -1.972830 2.262243
309 1 16.352894 -5.041399 -3.160257
310 1 15.914628 -3.287946 -1.352757
311 1 15.476469 -1.534497 0.454743
312 1 15.038101 0.219112 2.262243
313 1 17.668167 -2.849618 -3.160257
314 1 17.229825 -1.096061 -1.352757
315 1 16.791353 0.657555 0.454743
316 1 16.352894 2.411122 2.262243
317 1 18.983189 -0.657665 -3.160257
318 1 18.544779 1.095894 -1.352757
319 1 18.106443 2.849406 0.454743
320 1 17.668167 4.602904 2.262243
321 1 20.298260 1.534220 -3.160257
322 1 19.859933 3.287743 -1.352757
323 1 19.421589 5.041285 0.454743
324 1 18.983189 6.794856 2.262243
325 1 21.613375 3.726104 -3.160257
326 1 21.175001 5.479657 -1.352757
327 1 20.736617 7.233209 0.454743
328 1 20.298260 8.986742 2.262243
329 1 22.928436 5.918012 -3.160257
330 1 22.490074 7.671552 -1.352757
331 1 22.051726 9.425086 0.454743
332 1 21.613375 11.178626 2.262243
333 1 24.243528 8.109901 -3.160257
334 1 23.805172 9.863441 -1.352757
335 1 23.366807 11.616987 0.454743
336 1 22.928436 13.370534 2.262243
337 1 25.558612 10.301798 -3.160257
338 1 25.120247 12.055342 -1.352757
339 1 24.681884 13.808883 0.454743
340 1 26.873692 12.493694 -3.160257
341 1 26.435333 14.247235 -1.352757
342 1 28.188778 14.685588 -3.160257
343 1 9.340233 -14.248374 2.262243
344 1 11.093850 -13.809689 0.454743
345 1 10.654804 -12.055413 2.262243
346 1 12.846432 -13.370739 -1.352757
347 1 12.407324 -11.616782 0.454743
348 1 11.968701 -9.863319 2.262243
349 1 14.599444 -12.932212 -3.160257
350 1 14.160906 -11.178652 -1.352757
351 1 13.722853 -9.425352 0.454743
352 1 13.284944 -7.671995 2.262243
353 1 15.914628 -10.740467 -3.160257
354 1 15.476469 -8.987018 -1.352757
355 1 15.038101 -7.233409 0.454743
356 1 14.599444 -5.479691 2.262243
357 1 17.229825 -8.548582 -3.160257
358 1 16.791353 -6.794967 -1.352757
359 1 16.352894 -5.041399 0.454743
360 1 15.914628 -3.287946 2.262243
361 1 18.544779 -6.356627 -3.160257
362 1 18.106443 -4.603115 -1.352757
363 1 17.668167 -2.849618 0.454743
364 1 17.229825 -1.096061 2.262243
365 1 19.859933 -4.164779 -3.160257
366 1 19.421589 -2.411236 -1.352757
367 1 18.983189 -0.657665 0.454743
368 1 18.544779 1.095894 2.262243
369 1 21.175001 -1.972864 -3.160257
370 1 20.736617 -0.219312 -1.352757
371 1 20.298260 1.534220 0.454743
372 1 19.859933 3.287743 2.262243
373 1 22.490074 0.219031 -3.160257
374 1 22.051726 1.972564 -1.352757
375 1 21.613375 3.726104 0.454743
376 1 21.175001 5.479657 2.262243
377 1 23.805172 2.410920 -3.160257
378 1 23.366807 4.164466 -1.352757
379 1 22.928436 5.918012 0.454743
380 1 22.490074 7.671552 2.262243
381 1 25.120247 4.602820 -3.160257
382 1 24.681884 6.356362 -1.352757
383 1 24.243528 8.109901 0.454743
384 1 23.805172 9.863441 2.262243
385 1 26.435333 6.794713 -3.160257
386 1 25.996974 8.548254 -1.352757
387 1 25.558612 10.301798 0.454743
388 1 25.120247 12.055342 2.262243
389 1 27.750417 8.986609 -3.160257
390 1 27.312054 10.740152 -1.352757
391 1 26.873692 12.493694 0.454743
392 1 26.435333 14.247235 2.262243
393 1 29.065499 11.178505 -3.160257
394 1 28.627138 12.932046 -1.352757
395 1 28.188778 14.685588 0.454743
396 1 30.380583 13.370399 -3.160257
397 1 12.846432 -13.370739 2.262243
398 1 15.038101 -14.685931 -1.352757
399 1 14.599444 -12.932212 0.454743
400 1 14.160906 -11.178652 2.262243
401 1 16.791353 -14.247488 -3.160257
402 1 16.352894 -12.493921 -1.352757
403 1 15.914628 -10.740467 0.454743
404 1 15.476469 -8.987018 2.262243
405 1 18.106443 -12.055637 -3.160257
406 1 17.668167 -10.302139 -1.352757
407 1 17.229825 -8.548582 0.454743
408 1 16.791353 -6.794967 2.262243
409 1 19.421589 -9.863757 -3.160257
410 1 18.983189 -8.110187 -1.352757
411 1 18.544779 -6.356627 0.454743
412 1 18.106443 -4.603115 2.262243
413 1 20.736617 -7.671834 -3.160257
414 1 20.298260 -5.918301 -1.352757
415 1 19.859933 -4.164779 0.454743
416 1 19.421589 -2.411236 2.262243
417 1 22.051726 -5.479957 -3.160257
418 1 21.613375 -3.726417 -1.352757
419 1 21.175001 -1.972864 0.454743
420 1 20.736617 -0.219312 2.262243
421 1 23.366807 -3.288056 -3.160257
422 1 22.928436 -1.534509 -1.352757
423 1 22.490074 0.219031 0.454743
424 1 22.051726 1.972564 2.262243
425 1 24.681884 -1.096159 -3.160257
426 1 24.243528 0.657379 -1.352757
427 1 23.805172 2.410920 0.454743
428 1 23.366807 4.164466 2.262243
429 1 25.996974 1.095733 -3.160257
430 1 25.558612 2.849276 -1.352757
431 1 25.120247 4.602820 0.454743
432 1 24.681884 6.356362 2.262243
433 1 27.312054 3.287630 -3.160257
434 1 26.873692 5.041173 -1.352757
435 1 26.435333 6.794713 0.454743
436 1 25.996974 8.548254 2.262243
437 1 28.627138 5.479525 -3.160257
438 1 28.188778 7.233066 -1.352757
439 1 27.750417 8.986609 0.454743
440 1 27.312054 10.740152 2.262243
441 1 29.942222 7.671420 -3.160257
442 1 29.503861 9.424963 -1.352757
443 1 29.065499 11.178505 0.454743
444 1 28.627138 12.932046 2.262243
445 1 31.257305 9.863316 -3.160257
446 1 30.818944 11.616858 -1.352757
447 1 30.380583 13.370399 0.454743
448 1 32.572389 12.055211 -3.160257
449 1 32.134028 13.808753 -1.352757
450 1 33.887472 14.247106 -3.160257
451 1 15.038101 -14.685931 2.262243
452 1 16.791353 -14.247488 0.454743
453 1 16.352894 -12.493921 2.262243
454 1 18.544779 -13.809148 -1.352757
455 1 18.106443 -12.055637 0.454743
456 1 17.668167 -10.302139 2.262243
457 1 20.298260 -13.370822 -3.160257
458 1 19.859933 -11.617300 -1.352757
459 1 19.421589 -9.863757 0.454743
460 1 18.983189 -8.110187 2.262243
461 1 21.613375 -11.178938 -3.160257
462 1 21.175001 -9.425385 -1.352757
463 1 20.736617 -7.671834 0.454743
464 1 20.298260 -5.918301 2.262243
465 1 22.928436 -8.987030 -3.160257
466 1 22.490074 -7.233491 -1.352757
467 1 22.051726 -5.479957 0.454743
468 1 21.613375 -3.726417 2.262243
469 1 24.243528 -6.795142 -3.160257
470 1 23.805172 -5.041601 -1.352757
471 1 23.366807 -3.288056 0.454743
472 1 22.928436 -1.534509 2.262243
473 1 25.558612 -4.603245 -3.160257
474 1 25.120247 -2.849701 -1.352757
475 1 24.681884 -1.096159 0.454743
476 1 24.243528 0.657379 2.262243
477 1 26.873692 -2.411349 -3.160257
478 1 26.435333 -0.657808 -1.352757
479 1 25.996974 1.095733 0.454743
480 1 25.558612 2.849276 2.262243
481 1 28.188778 -0.219455 -3.160257
482 1 27.750417 1.534088 -1.352757
483 1 27.312054 3.287630 0.454743
484 1 26.873692 5.041173 2.262243
485 1 29.503861 1.972441 -3.160257
486 1 29.065499 3.725983 -1.352757
487 1 28.627138 5.479525 0.454743
488 1 28.188778 7.233066 2.262243
489 1 30.818944 4.164336 -3.160257
490 1 30.380583 5.917878 -1.352757
491 1 29.942222 7.671420 0.454743
492 1 29.503861 9.424963 2.262243
493 1 32.134028 6.356231 -3.160257
494 1 31.695667 8.109774 -1.352757
495 1 31.257305 9.863316 0.454743
496 1 30.818944 11.616858 2.262243
497 1 33.449111 8.548127 -3.160257
498 1 33.010750 10.301669 -1.352757
499 1 32.572389 12.055211 0.454743
500 1 32.134028 13.808753 2.262243
501 1 34.764195 10.740022 -3.160257
502 1 34.325834 12.493564 -1.352757
503 1 33.887472 14.247106 0.454743
504 1 36.079278 12.931917 -3.160257
505 1 35.640917 14.685459 -1.352757
506 1 18.544779 -13.809148 2.262243
507 1 20.298260 -13.370822 0.454743
508 1 19.859933 -11.617300 2.262243
509 1 22.490074 -14.686012 -3.160257
510 1 22.051726 -12.932478 -1.352757
511 1 21.613375 -11.178938 0.454743
512 1 21.175001 -9.425385 2.262243
513 1 23.805172 -12.494123 -3.160257
514 1 23.366807 -10.740577 -1.352757
515 1 22.928436 -8.987030 0.454743
516 1 22.490074 -7.233491 2.262243
517 1 25.120247 -10.302222 -3.160257
518 1 24.681884 -8.548681 -1.352757
519 1 24.243528 -6.795142 0.454743
520 1 23.805172 -5.041601 2.262243
521 1 26.435333 -8.110329 -3.160257
522 1 25.996974 -6.356788 -1.352757
523 1 25.558612 -4.603245 0.454743
524 1 25.120247 -2.849701 2.262243
525 1 27.750417 -5.918434 -3.160257
526 1 27.312054 -4.164891 -1.352757
527 1 26.873692 -2.411349 0.454743
528 1 26.435333 -0.657808 2.262243
529 1 29.065499 -3.726538 -3.160257
530 1 28.627138 -1.972996 -1.352757
531 1 28.188778 -0.219455 0.454743
532 1 27.750417 1.534088 2.262243
533 1 30.380583 -1.534643 -3.160257
534 1 29.942222 0.218899 -1.352757
535 1 29.503861 1.972441 0.454743
536 1 29.065499 3.725983 2.262243
537 1 31.695667 0.657252 -3.160257
538 1 31.257305 2.410794 -1.352757
539 1 30.818944 4.164336 0.454743
540 1 30.380583 5.917878 2.262243
541 1 33.010750 2.849148 -3.160257
542 1 32.572389 4.602689 -1.352757
543 1 32.134028 6.356231 0.454743
544 1 31.695667 8.109774 2.262243
545 1 34.325834 5.041043 -3.160257
546 1 33.887472 6.794585 -1.352757
547 1 33.449111 8.548127 0.454743
548 1 33.010750 10.301669 2.262243
549 1 35.640917 7.232938 -3.160257
550 1 35.202556 8.986480 -1.352757
551 1 34.764195 10.740022 0.454743
552 1 34.325834 12.493564 2.262243
553 1 36.956001 9.424833 -3.160257
554 1 36.517639 11.178375 -1.352757
555 1 36.079278 12.931917 0.454743
556 1 35.640917 14.685459 2.262243
557 1 38.271084 11.616729 -3.160257
558 1 37.832723 13.370271 -1.352757
559 1 39.586168 13.808624 -3.160257
560 1 22.490074 -14.686012 0.454743
561 1 22.051726 -12.932478 2.262243
562 1 24.243528 -14.247663 -1.352757
563 1 23.805172 -12.494123 0.454743
564 1 23.366807 -10.740577 2.262243
565 1 25.996974 -13.809310 -3.160257
566 1 25.558612 -12.055766 -1.352757
567 1 25.120247 -10.302222 0.454743
568 1 24.681884 -8.548681 2.262243
569 1 27.312054 -11.617412 -3.160257
570 1 26.873692 -9.863870 -1.352757
571 1 26.435333 -8.110329 0.454743
572 1 25.996974 -6.356788 2.262243
573 1 28.627138 -9.425518 -3.160257
574 1 28.188778 -7.671976 -1.352757
575 1 27.750417 -5.918434 0.454743
576 1 27.312054 -4.164891 2.262243
577 1 29.942222 -7.233622 -3.160257
578 1 29.503861 -5.480080 -1.352757
579 1 29.065499 -3.726538 0.454743
580 1 28.627138 -1.972996 2.262243
581 1 31.257305 -5.041727 -3.160257
582 1 30.818944 -3.288185 -1.352757
583 1 30.380583 -1.534643 0.454743
584 1 29.942222 0.218899 2.262243
585 1 32.572389 -2.849832 -3.160257
586 1 32.134028 -1.096290 -1.352757
587 1 31.695667 0.657252 0.454743
588 1 31.257305 2.410794 2.262243
589 1 33.887472 -0.657936 -3.160257
590 1 33.449111 1.095606 -1.352757
591 1 33.010750 2.849148 0.454743
592 1 32.572389 4.602689 2.262243
593 1 35.202556 1.533959 -3.160257
594 1 34.764195 3.287501 -1.352757
595 1 34.325834 5.041043 0.454743
596 1 33.887472 6.794585 2.262243
597 1 36.517639 3.725854 -3.160257
598 1 36.079278 5.479396 -1.352757
599 1 35.640917 7.232938 0.454743
600 1 35.202556 8.986480 2.262243
601 1 37.832723 5.917749 -3.160257
602 1 37.394362 7.671291 -1.352757
603 1 36.956001 9.424833 0.454743
604 1 36.517639 11.178375 2.262243
605 1 39.147806 8.109645 -3.160257
606 1 38.709445 9.863187 -1.352757
607 1 38.271084 11.616729 0.454743
608 1 37.832723 13.370271 2.262243
609 1 40.462890 10.301540 -3.160257
610 1 40.024529 12.055082 -1.352757
611 1 39.586168 13.808624 0.454743
612 1 41.777973 12.493435 -3.160257
613 1 41.339612 14.246977 -1.352757
614 1 43.093057 14.685330 -3.160257
615 1 24.243528 -14.247663 2.262243
616 1 25.996974 -13.809310 0.454743
617 1 25.558612 -12.055766 2.262243
618 1 27.750417 -13.370955 -1.352757
619 1 27.312054 -11.617412 0.454743
620 1 26.873692 -9.863870 2.262243
621 1 29.503861 -12.932601 -3.160257
622 1 29.065499 -11.179059 -1.352757
623 1 28.627138 -9.425518 0.454743
624 1 28.188778 -7.671976 2.262243
625 1 30.818944 -10.740706 -3.160257
626 1 30.380583 -8.987165 -1.352757
627 1 29.942222 -7.233622 0.454743
628 1 29.503861 -5.480080 2.262243
629 1 32.134028 -8.548811 -3.160257
630 1 31.695667 -6.795269 -1.352757
631 1 31.257305 -5.041727 0.454743
632 1 30.818944 -3.288185 2.262243
633 1 33.449111 -6.356916 -3.160257
634 1 33.010750 -4.603374 -1.352757
635 1 32.572389 -2.849832 0.454743
636 1 32.134028 -1.096290 2.262243
637 1 34.764195 -4.165021 -3.160257
638 1 34.325834 -2.411479 -1.352757
639 1 33.887472 -0.657936 0.454743
640 1 33.449111 1.095606 2.262243
641 1 36.079278 -1.973125 -3.160257
642 1 35.640917 -0.219583 -1.352757
643 1 35.202556 1.533959 0.454743
644 1 34.764195 3.287501 2.262243
645 1 37.394362 0.218770 -3.160257
646 1 36.956001 1.972312 -1.352757
647 1 36.517639 3.725854 0.454743
648 1 36.079278 5.479396 2.262243
649 1 38.709445 2.410665 -3.160257
650 1 38.271084 4.164207 -1.352757
651 1 37.832723 5.917749 0.454743
652 1 37.394362 7.671291 2.262243
653 1 40.024529 4.602561 -3.160257
654 1 39.586168 6.356103 -1.352757
655 1 39.147806 8.109645 0.454743
656 1 38.709445 9.863187 2.262243
657 1 41.339612 6.794456 -3.160257
658 1 40.901251 8.547998 -1.352757
659 1 40.462890 10.301540 0.454743
660 1 40.024529 12.055082 2.262243
661 1 42.654696 8.986351 -3.160257
662 1 42.216335 10.739893 -1.352757
663 1 41.777973 12.493435 0.454743
664 1 41.339612 14.246977 2.262243
665 1 43.969779 11.178246 -3.160257
666 1 43.531418 12.931788 -1.352757
667 1 43.093057 14.685330 0.454743
668 1 45.284863 13.370142 -3.160257
669 1 27.750417 -13.370955 2.262243
670 1 29.942222 -14.686144 -1.352757
671 1 29.503861 -12.932601 0.454743
672 1 29.065499 -11.179059 2.262243
673 1 31.695667 -14.247790 -3.160257
674 1 31.257305 -12.494248 -1.352757
675 1 30.818944 -10.740706 0.454743
676 1 30.380583 -8.987165 2.262243
677 1 33.010750 -12.055895 -3.160257
678 1 32.572389 -10.302353 -1.352757
679 1 32.134028 -8.548811 0.454743
680 1 31.695667 -6.795269 2.262243
681 1 34.325834 -9.864000 -3.160257
682 1 33.887472 -8.110458 -1.352757
683 1 33.449111 -6.356916 0.454743
684 1 33.010750 -4.603374 2.262243
685 1 35.640917 -7.672105 -3.160257
686 1 35.202556 -5.918563 -1.352757
687 1 34.764195 -4.165021 0.454743
688 1 34.325834 -2.411479 2.262243
689 1 36.956001 -5.480209 -3.160257
690 1 36.517639 -3.726667 -1.352757
691 1 36.079278 -1.973125 0.454743
692 1 35.640917 -0.219583 2.262243
693 1 38.271084 -3.288314 -3.160257
694 1 37.832723 -1.534772 -1.352757
695 1 37.394362 0.218770 0.454743
696 1 36.956001 1.972312 2.262243
697 1 39.586168 -1.096419 -3.160257
698 1 39.147806 0.657123 -1.352757
699 1 38.709445 2.410665 0.454743
700 1 38.271084 4.164207 2.262243
701 1 40.901251 1.095477 -3.160257
702 1 40.462890 2.849019 -1.352757
703 1 40.024529 4.602561 0.454743
704 1 39.586168 6.356103 2.262243
705 1 42.216335 3.287372 -3.160257
706 1 41.777973 5.040914 -1.352757
707 1 41.339612 6.794456 0.454743
708 1 40.901251 8.547998 2.262243
709 1 43.531418 5.479267 -3.160257
710 1 43.093057 7.232809 -1.352757
711 1 42.654696 8.986351 0.454743
712 1 42.216335 10.739893 2.262243
713 1 44.846502 7.671162 -3.160257
714 1 44.408140 9.424704 -1.352757
715 1 43.969779 11.178246 0.454743
716 1 43.531418 12.931788 2.262243
717 1 46.161585 9.863058 -3.160257
718 1 45.723224 11.616600 -1.352757
719 1 45.284863 13.370142 0.454743
720 1 47.476669 12.054953 -3.160257
721 1 47.038307 13.808495 -1.352757
722 1 48.791752 14.246848 -3.160257
723 1 29.942222 -14.686144 2.262243
724 1 31.695667 -14.247790 0.454743
725 1 31.257305 -12.494248 2.262243
726 1 33.449111 -13.809437 -1.352757
727 1 33.010750 -12.055895 0.454743
728 1 32.572389 -10.302353 2.262243
729 1 35.202556 -13.371084 -3.160257
730 1 34.764195 -11.617542 -1.352757
731 1 34.325834 -9.864000 0.454743
732 1 33.887472 -8.110458 2.262243
733 1 36.517639 -11.179189 -3.160257
734 1 36.079278 -9.425647 -1.352757
735 1 35.640917 -7.672105 0.454743
736 1 35.202556 -5.918563 2.262243
737 1 37.832723 -8.987293 -3.160257
738 1 37.394362 -7.233751 -1.352757
739 1 36.956001 -5.480209 0.454743
740 1 36.517639 -3.726667 2.262243
741 1 39.147806 -6.795398 -3.160257
742 1 38.709445 -5.041856 -1.352757
743 1 38.271084 -3.288314 0.454743
744 1 37.832723 -1.534772 2.262243
745 1 40.462890 -4.603503 -3.160257
746 1 40.024529 -2.849961 -1.352757
747 1 39.586168 -1.096419 0.454743
748 1 39.147806 0.657123 2.262243
749 1 41.777973 -2.411607 -3.160257
750 1 41.339612 -0.658065 -1.352757
751 1 40.901251 1.095477 0.454743
752 1 40.462890 2.849019 2.262243
753 1 43.093057 -0.219712 -3.160257
754 1 42.654696 1.533830 -1.352757
755 1 42.216335 3.287372 0.454743
756 1 41.777973 5.040914 2.262243
757 1 44.408140 1.972183 -3.160257
758 1 43.969779 3.725725 -1.352757
759 1 43.531418 5.479267 0.454743
760 1 43.093057 7.232809 2.262243
761 1 45.723224 4.164078 -3.160257
762 1 45.284863 5.917620 -1.352757
763 1 44.846502 7.671162 0.454743
764 1 44.408140 9.424704 2.262243
765 1 47.038307 6.355974 -3.160257
766 1 46.599946 8.109516 -1.352757
767 1 46.161585 9.863058 0.454743
768 1 45.723224 11.616600 2.262243
769 1 48.353391 8.547869 -3.160257
770 1 47.915030 10.301411 -1.352757
771 1 47.476669 12.054953 0.454743
772 1 47.038307 13.808495 2.262243
773 1 49.668474 10.739764 -3.160257
774 1 49.230113 12.493306 -1.352757
775 1 48.791752 14.246848 0.454743
776 1 50.983558 12.931659 -3.160257
777 1 50.545197 14.685201 -1.352757
778 1 33.449111 -13.809437 2.262243
779 1 35.202556 -13.371084 0.454743
780 1 34.764195 -11.617542 2.262243
781 1 37.394362 -14.686273 -3.160257
782 1 36.956001 -12.932731 -1.352757
783 1 36.517639 -11.179189 0.454743
784 1 36.079278 -9.425647 2.262243
785 1 38.709445 -12.494377 -3.160257
786 1 38.271084 -10.740835 -1.352757
787 1 37.832723 -8.987293 0.454743
788 1 37.394362 -7.233751 2.262243
789 1 40.024529 -10.302482 -3.160257
790 1 39.586168 -8.548940 -1.352757
791 1 39.147806 -6.795398 0.454743
792 1 38.709445 -5.041856 2.262243
793 1 41.339612 -8.110587 -3.160257
794 1 40.901251 -6.357045 -1.352757
795 1 40.462890 -4.603503 0.454743
796 1 40.024529 -2.849961 2.262243
797 1 42.654696 -5.918692 -3.160257
798 1 42.216335 -4.165149 -1.352757
799 1 41.777973 -2.411607 0.454743
800 1 41.339612 -0.658065 2.262243
801 1 43.969779 -3.726796 -3.160257
802 1 43.531418 -1.973254 -1.352757
803 1 43.093057 -0.219712 0.454743
804 1 42.654696 1.533830 2.262243
805 1 45.284863 -1.534901 -3.160257
806 1 44.846502 0.218641 -1.352757
807 1 44.408140 1.972183 0.454743
808 1 43.969779 3.725725 2.262243
809 1 46.599946 0.656994 -3.160257
810 1 46.161585 2.410536 -1.352757
811 1 45.723224 4.164078 0.454743
812 1 45.284863 5.917620 2.262243
813 1 47.915030 2.848890 -3.160257
814 1 47.476669 4.602432 -1.352757
815 1 47.038307 6.355974 0.454743
816 1 46.599946 8.109516 2.262243
817 1 49.230113 5.040785 -3.160257
818 1 48.791752 6.794327 -1.352757
819 1 48.353391 8.547869 0.454743
820 1 47.915030 10.301411 2.262243
821 1 50.545197 7.232680 -3.160257
822 1 50.106836 8.986222 -1.352757
823 1 49.668474 10.739764 0.454743
824 1 49.230113 12.493306 2.262243
825 1 51.860280 9.424575 -3.160257
826 1 51.421919 11.178117 -1.352757
827 1 50.983558 12.931659 0.454743
828 1 50.545197 14.685201 2.262243
829 1 53.175364 11.616471 -3.160257
830 1 52.737003 13.370013 -1.352757
831 1 54.490447 13.808366 -3.160257
832 1 37.394362 -14.686273 0.454743
833 1 36.956001 -12.932731 2.262243
834 1 39.147806 -14.247919 -1.352757
835 1 38.709445 -12.494377 0.454743
836 1 38.271084 -10.740835 2.262243
837 1 40.901251 -13.809566 -3.160257
838 1 40.462890 -12.056024 -1.352757
839 1 40.024529 -10.302482 0.454743
840 1 39.586168 -8.548940 2.262243
841 1 42.216335 -11.617671 -3.160257
842 1 41.777973 -9.864129 -1.352757
843 1 41.339612 -8.110587 0.454743
844 1 40.901251 -6.357045 2.262243
845 1 43.531418 -9.425776 -3.160257
846 1 43.093057 -7.672234 -1.352757
847 1 42.654696 -5.918692 0.454743
848 1 42.216335 -4.165149 2.262243
849 1 44.846502 -7.233880 -3.160257
850 1 44.408140 -5.480338 -1.352757
851 1 43.969779 -3.726796 0.454743
852 1 43.531418 -1.973254 2.262243