#LAMMPS data file
3656 atoms
2 atom types
-125.2250000000 125.2250000000 xlo xhi
-14.9050426500 14.9050426500 ylo yhi
-3.6150000000 3.6150000000 zlo zhi
0.0 0.0 0.0 xy xz yz

Atoms # atomic

1 2 0.877903 12.999823 -3.168200
2 2 -0.289722 7.732323 -1.360700
3 2 0.877903 9.319099 -3.168200
4 2 0.877903 11.172740 -1.360700
5 2 0.877903 12.999823 0.446800
6 1 2.756543 11.513962 -3.168200
7 1 2.420227 13.390400 -1.360700
8 1 4.116021 13.776520 -3.168200
9 2 0.877903 3.720219 -3.168200
10 2 0.877903 5.547301 -1.360700
11 2 -0.289722 7.732323 2.254300
12 1 2.420227 5.937878 -3.168200
13 1 2.045527 7.732323 -1.360700
14 2 0.877903 9.319099 0.446800
15 2 0.877903 11.172740 2.254300
16 1 3.649412 8.173517 -3.168200
17 1 3.111031 9.891289 -1.360700
18 1 2.756543 11.513962 0.446800
19 1 2.420227 13.390400 2.254300
20 1 4.964173 10.305054 -3.168200
21 1 4.530615 12.025584 -1.360700
22 1 4.116021 13.776520 0.446800
23 1 6.288443 12.485583 -3.168200
24 1 5.824425 14.249667 -1.360700
25 2 0.877903 -1.905220 -3.168200
26 2 -0.289722 0.279802 0.446800
27 1 2.045527 0.279802 -3.168200
28 2 0.877903 1.866577 -1.360700
29 2 0.877903 3.720219 0.446800
30 2 0.877903 5.547301 2.254300
31 1 3.111031 2.438768 -3.168200
32 1 2.756543 4.061440 -1.360700
33 1 2.420227 5.937878 0.446800
34 1 2.045527 7.732323 2.254300
35 1 4.530615 4.573063 -3.168200
36 1 4.116021 6.323998 -1.360700
37 1 3.649412 8.173517 0.446800
38 1 3.111031 9.891289 2.254300
39 1 5.824425 6.797146 -3.168200
40 1 5.372808 8.560804 -1.360700
41 1 4.964173 10.305054 0.446800
42 1 4.530615 12.025584 2.254300
43 1 7.144789 8.982863 -3.168200
44 1 6.722981 10.732999 -1.360700
45 1 6.288443 12.485583 0.446800
46 1 5.824425 14.249667 2.254300
47 1 8.471667 11.173129 -3.168200
48 1 8.026421 12.933418 -1.360700
49 1 9.776258 13.370751 -3.168200
50 2 -0.289722 -7.172719 -1.360700
51 2 0.877903 -5.585944 -3.168200
52 2 0.877903 -3.732302 -1.360700
53 2 0.877903 -1.905220 0.446800
54 2 -0.289722 0.279802 -3.168200
55 1 2.756543 -3.391081 -3.168200
56 1 2.420227 -1.514643 -1.360700
57 1 2.045527 0.279802 0.446800
58 2 0.877903 1.866577 2.254300
59 1 4.116021 -1.128523 -3.168200
60 1 3.649412 0.720995 -1.360700
61 1 3.111031 2.438768 0.446800
62 1 2.756543 4.061440 2.254300
63 1 5.372808 1.108283 -3.168200
64 1 4.964173 2.852532 -1.360700
65 1 4.530615 4.573063 0.446800
66 1 4.116021 6.323998 2.254300
67 1 6.722981 3.280478 -3.168200
68 1 6.288443 5.033062 -1.360700
69 1 5.824425 6.797146 0.446800
70 1 5.372808 8.560804 2.254300
71 1 8.026421 5.480897 -3.168200
72 1 7.576977 7.236027 -1.360700
73 1 7.144789 8.982863 0.446800
74 1 6.722981 10.732999 2.254300
75 1 9.338774 7.669965 -3.168200
76 1 8.906201 9.419456 -1.360700
77 1 8.471667 11.173129 0.446800
78 1 8.026421 12.933418 2.254300
79 1 10.659476 9.859633 -3.168200
80 1 10.218698 11.615169 -1.360700
81 1 9.776258 13.370751 0.446800
82 1 11.970386 12.053941 -3.168200
83 1 11.531903 13.807026 -1.360700
84 1 13.287039 14.244547 -3.168200
85 2 0.877903 -11.184824 -3.168200
86 2 0.877903 -9.357741 -1.360700
87 2 -0.289722 -7.172719 2.254300
88 1 2.420227 -8.967164 -3.168200
89 1 2.045527 -7.172719 -1.360700
90 2 0.877903 -5.585944 0.446800
91 2 0.877903 -3.732302 2.254300
92 1 3.649412 -6.731526 -3.168200
93 1 3.111031 -5.013753 -1.360700
94 1 2.756543 -3.391081 0.446800
95 1 2.420227 -1.514643 2.254300
96 1 4.964173 -4.599989 -3.168200
97 1 4.530615 -2.879459 -1.360700
98 1 4.116021 -1.128523 0.446800
99 1 3.649412 0.720995 2.254300
100 1 6.288443 -2.419460 -3.168200
101 1 5.824425 -0.655375 -1.360700
102 1 5.372808 1.108283 0.446800
103 1 4.964173 2.852532 2.254300
104 1 7.576977 -0.216495 -3.168200
105 1 7.144789 1.530341 -1.360700
106 1 6.722981 3.280478 0.446800
107 1 6.288443 5.033062 2.254300
108 1 8.906201 1.966935 -3.168200
109 1 8.471667 3.720608 -1.360700
110 1 8.026421 5.480897 0.446800
111 1 7.576977 7.236027 2.254300
112 1 10.218698 4.162648 -3.168200
113 1 9.776258 5.918230 -1.360700
114 1 9.338774 7.669965 0.446800
115 1 8.906201 9.419456 2.254300
116 1 11.531903 6.354504 -3.168200
117 1 11.096038 8.106588 -1.360700
118 1 10.659476 9.859633 0.446800
119 1 10.218698 11.615169 2.254300
120 1 12.849655 8.545273 -3.168200
121 1 12.410609 10.299549 -1.360700
122 1 11.970386 12.053941 0.446800
123 1 11.531903 13.807026 2.254300
124 1 14.163129 10.738180 -3.168200
125 1 13.724506 12.491643 -1.360700
126 1 13.287039 14.244547 0.446800
127 1 15.478658 12.929611 -3.168200
128 2 -0.289722 -14.625241 0.446800
129 1 2.045527 -14.625241 -3.168200
130 2 0.877903 -13.038465 -1.360700
131 2 0.877903 -11.184824 0.446800
132 2 0.877903 -9.357741 2.254300
133 1 3.111031 -12.466275 -3.168200
134 1 2.756543 -10.843602 -1.360700
135 1 2.420227 -8.967164 0.446800
136 1 2.045527 -7.172719 2.254300
137 1 4.530615 -10.331980 -3.168200
138 1 4.116021 -8.581044 -1.360700
139 1 3.649412 -6.731526 0.446800
140 1 3.111031 -5.013753 2.254300
141 1 5.824425 -8.107897 -3.168200
142 1 5.372808 -6.344238 -1.360700
143 1 4.964173 -4.599989 0.446800
144 1 4.530615 -2.879459 2.254300
145 1 7.144789 -5.922180 -3.168200
146 1 6.722981 -4.172044 -1.360700
147 1 6.288443 -2.419460 0.446800
148 1 5.824425 -0.655375 2.254300
149 1 8.471667 -3.731913 -3.168200
150 1 8.026421 -1.971625 -1.360700
151 1 7.576977 -0.216495 0.446800
152 1 7.144789 1.530341 2.254300
153 1 9.776258 -1.534291 -3.168200
154 1 9.338774 0.217444 -1.360700
155 1 8.906201 1.966935 0.446800
156 1 8.471667 3.720608 2.254300
157 1 11.096038 0.654067 -3.168200
158 1 10.659476 2.407112 -1.360700
159 1 10.218698 4.162648 0.446800
160 1 9.776258 5.918230 2.254300
161 1 12.410609 2.847028 -3.168200
162 1 11.970386 4.601420 -1.360700
163 1 11.531903 6.354504 0.446800
164 1 11.096038 8.106588 2.254300
165 1 13.724506 5.039122 -3.168200
166 1 13.287039 6.792026 -1.360700
167 1 12.849655 8.545273 0.446800
168 1 12.410609 10.299549 2.254300
169 1 15.040749 7.230447 -3.168200
170 1 14.602237 8.984223 -1.360700
171 1 14.163129 10.738180 0.446800
172 1 13.724506 12.491643 2.254300
173 1 16.355249 9.422750 -3.168200
174 1 15.916711 11.176310 -1.360700
175 1 15.478658 12.929611 0.446800
176 1 17.670433 11.614495 -3.168200
177 1 17.232274 13.367944 -1.360700
178 1 18.985630 13.806380 -3.168200
179 2 -0.289722 -14.625241 -3.168200
180 1 2.045527 -14.625241 0.446800
181 2 0.877903 -13.038465 2.254300
182 1 3.649412 -14.184047 -1.360700
183 1 3.111031 -12.466275 0.446800
184 1 2.756543 -10.843602 2.254300
185 1 5.372808 -13.796760 -3.168200
186 1 4.964173 -12.052510 -1.360700
187 1 4.530615 -10.331980 0.446800
188 1 4.116021 -8.581044 2.254300
189 1 6.722981 -11.624565 -3.168200
190 1 6.288443 -9.871981 -1.360700
191 1 5.824425 -8.107897 0.446800
192 1 5.372808 -6.344238 2.254300
193 1 8.026421 -9.424146 -3.168200
194 1 7.576977 -7.669016 -1.360700
195 1 7.144789 -5.922180 0.446800
196 1 6.722981 -4.172044 2.254300
197 1 9.338774 -7.235077 -3.168200
198 1 8.906201 -5.485586 -1.360700
199 1 8.471667 -3.731913 0.446800
200 1 8.026421 -1.971625 2.254300
201 1 10.659476 -5.045410 -3.168200
202 1 10.218698 -3.289874 -1.360700
203 1 9.776258 -1.534291 0.446800
204 1 9.338774 0.217444 2.254300
205 1 11.970386 -2.851101 -3.168200
206 1 11.531903 -1.098017 -1.360700
207 1 11.096038 0.654067 0.446800
208 1 10.659476 2.407112 2.254300
209 1 13.287039 -0.660495 -3.168200
210 1 12.849655 1.092752 -1.360700
211 1 12.410609 2.847028 0.446800
212 1 11.970386 4.601420 2.254300
213 1 14.602237 1.531702 -3.168200
214 1 14.163129 3.285659 -1.360700
215 1 13.724506 5.039122 0.446800
216 1 13.287039 6.792026 2.254300
217 1 15.916711 3.723789 -3.168200
218 1 15.478658 5.477090 -1.360700
219 1 15.040749 7.230447 0.446800
220 1 14.602237 8.984223 2.254300
221 1 17.232274 5.915423 -3.168200
222 1 16.793906 7.669032 -1.360700
223 1 16.355249 9.422750 0.446800
224 1 15.916711 11.176310 2.254300
225 1 18.547159 8.107474 -3.168200
226 1 18.108699 9.861042 -1.360700
227 1 17.670433 11.614495 0.446800
228 1 17.232274 13.367944 2.254300
229 1 19.862248 10.299326 -3.168200
230 1 19.423972 12.052824 -1.360700
231 1 18.985630 13.806380 0.446800
232 1 21.177394 12.491205 -3.168200
233 1 20.738994 14.244776 -1.360700
234 1 3.649412 -14.184047 2.254300
235 1 5.372808 -13.796760 0.446800
236 1 4.964173 -12.052510 2.254300
237 1 7.576977 14.688548 -3.168200
238 1 7.144789 -13.374701 -1.360700
239 1 6.722981 -11.624565 0.446800
240 1 6.288443 -9.871981 2.254300
241 1 8.906201 -12.938108 -3.168200
242 1 8.471667 -11.184434 -1.360700
243 1 8.026421 -9.424146 0.446800
244 1 7.576977 -7.669016 2.254300
245 1 10.218698 -10.742395 -3.168200
246 1 9.776258 -8.986813 -1.360700
247 1 9.338774 -7.235077 0.446800
248 1 8.906201 -5.485586 2.254300
249 1 11.531903 -8.550538 -3.168200
250 1 11.096038 -6.798454 -1.360700
251 1 10.659476 -5.045410 0.446800
252 1 10.218698 -3.289874 2.254300
253 1 12.849655 -6.359769 -3.168200
254 1 12.410609 -4.605493 -1.360700
255 1 11.970386 -2.851101 0.446800
256 1 11.531903 -1.098017 2.254300
257 1 14.163129 -4.166862 -3.168200
258 1 13.724506 -2.413400 -1.360700
259 1 13.287039 -0.660495 0.446800
260 1 12.849655 1.092752 2.254300
261 1 15.478658 -1.975432 -3.168200
262 1 15.040749 -0.222075 -1.360700
263 1 14.602237 1.531702 0.446800
264 1 14.163129 3.285659 2.254300
265 1 16.793906 0.216511 -3.168200
266 1 16.355249 1.970229 -1.360700
267 1 15.916711 3.723789 0.446800
268 1 15.478658 5.477090 2.254300
269 1 18.108699 2.408520 -3.168200
270 1 17.670433 4.161974 -1.360700
271 1 17.232274 5.915423 0.446800
272 1 16.793906 7.669032 2.254300
273 1 19.423972 4.600302 -3.168200
274 1 18.985630 6.353859 -1.360700
275 1 18.547159 8.107474 0.446800
276 1 18.108699 9.861042 2.254300
277 1 20.738994 6.792255 -3.168200
278 1 20.300584 8.545814 -1.360700
279 1 19.862248 10.299326 0.446800
280 1 19.423972 12.052824 2.254300
281 1 22.054065 8.984140 -3.168200
282 1 21.615739 10.737662 -1.360700
283 1 21.177394 12.491205 0.446800
284 1 20.738994 14.244776 2.254300
285 1 23.369180 11.176024 -3.168200
286 1 22.930806 12.929577 -1.360700
287 1 24.684241 13.367932 -3.168200
288 1 7.576977 14.688548 0.446800
289 1 7.144789 -13.374701 2.254300
290 1 9.338774 -14.687599 -1.360700
291 1 8.906201 -12.938108 0.446800
292 1 8.471667 -11.184434 2.254300
293 1 11.096038 -14.250976 -3.168200
294 1 10.659476 -12.497931 -1.360700
295 1 10.218698 -10.742395 0.446800
296 1 9.776258 -8.986813 2.254300
297 1 12.410609 -12.058015 -3.168200
298 1 11.970386 -10.303623 -1.360700
299 1 11.531903 -8.550538 0.446800
300 1 11.096038 -6.798454 2.254300
301 1 13.724506 -9.865921 -3.168200
302 1 13.287039 -8.113017 -1.360700
303 1 12.849655 -6.359769 0.446800
304 1 12.410609 -4.605493 2.254300
305 1 15.040749 -7.674596 -3.168200
306 1 14.602237 -5.920820 -1.360700
307 1 14.163129 -4.166862 0.446800
308 1 13.724506 -2.413400 2.254300
309 1 16.355249 -5.482292 -3.168200
310 1 15.916711 -3.728733 -1.360700
311 1 15.478658 -1.975432 0.446800
312 1 15.040749 -0.222075 2.254300
313 1 17.670433 -3.290547 -3.168200
314 1 17.232274 -1.537099 -1.360700
315 1 16.793906 0.216511 0.446800
316 1 16.355249 1.970229 2.254300
317 1 18.985630 -1.098662 -3.168200
318 1 18.547159 0.654953 -1.360700
319 1 18.108699 2.408520 0.446800
320 1 17.670433 4.161974 2.254300
321 1 20.300584 1.093293 -3.168200
322 1 19.862248 2.846805 -1.360700
323 1 19.423972 4.600302 0.446800
324 1 18.985630 6.353859 2.254300
325 1 21.615739 3.285141 -3.168200
326 1 21.177394 5.038684 -1.360700
327 1 20.738994 6.792255 0.446800
328 1 20.300584 8.545814 2.254300
329 1 22.930806 5.477056 -3.168200
330 1 22.492423 7.230607 -1.360700
331 1 22.054065 8.984140 0.446800
332 1 21.615739 10.737662 2.254300
333 1 24.245879 7.668951 -3.168200
334 1 23.807531 9.422484 -1.360700
335 1 23.369180 11.176024 0.446800
336 1 22.930806 12.929577 2.254300
337 1 25.560977 9.860840 -3.168200
338 1 25.122612 11.614386 -1.360700
339 1 24.684241 13.367932 0.446800
340 1 26.876052 12.052740 -3.168200
341 1 26.437689 13.806282 -1.360700
342 1 28.191138 14.244633 -3.168200
343 1 9.338774 -14.687599 2.254300
344 1 11.096038 -14.250976 0.446800
345 1 10.659476 -12.497931 2.254300
346 1 12.849655 -13.812290 -1.360700
347 1 12.410609 -12.058015 0.446800
348 1 11.970386 -10.303623 2.254300
349 1 14.602237 -13.373341 -3.168200
350 1 14.163129 -11.619384 -1.360700
351 1 13.724506 -9.865921 0.446800
352 1 13.287039 -8.113017 2.254300
353 1 15.916711 -11.181254 -3.168200
354 1 15.478658 -9.427953 -1.360700
355 1 15.040749 -7.674596 0.446800
356 1 14.602237 -5.920820 2.254300
357 1 17.232274 -8.989620 -3.168200
358 1 16.793906 -7.236011 -1.360700
359 1 16.355249 -5.482292 0.446800
360 1 15.916711 -3.728733 2.254300
361 1 18.547159 -6.797568 -3.168200
362 1 18.108699 -5.044001 -1.360700
363 1 17.670433 -3.290547 0.446800
364 1 17.232274 -1.537099 2.254300
365 1 19.862248 -4.605717 -3.168200
366 1 19.423972 -2.852219 -1.360700
367 1 18.985630 -1.098662 0.446800
368 1 18.547159 0.654953 2.254300
369 1 21.177394 -2.413838 -3.168200
370 1 20.738994 -0.660267 -1.360700
371 1 20.300584 1.093293 0.446800
372 1 19.862248 2.846805 2.254300
373 1 22.492423 -0.221914 -3.168200
374 1 22.054065 1.531619 -1.360700
375 1 21.615739 3.285141 0.446800
376 1 21.177394 5.038684 2.254300
377 1 23.807531 1.969963 -3.168200
378 1 23.369180 3.723503 -1.360700
379 1 22.930806 5.477056 0.446800
380 1 22.492423 7.230607 2.254300
381 1 25.122612 4.161864 -3.168200
382 1 24.684241 5.915411 -1.360700
383 1 24.245879 7.668951 0.446800
384 1 23.807531 9.422484 2.254300
385 1 26.437689 6.353761 -3.168200
386 1 25.999333 8.107299 -1.360700
387 1 25.560977 9.860840 0.446800
388 1 25.122612 11.614386 2.254300
389 1 27.752779 8.545653 -3.168200
390 1 27.314417 10.299196 -1.360700
391 1 26.876052 12.052740 0.446800
392 1 26.437689 13.806282 2.254300
393 1 29.067859 10.737550 -3.168200
394 1 28.629497 12.491092 -1.360700
395 1 28.191138 14.244633 0.446800
396 1 30.382943 12.929445 -3.168200
397 1 12.849655 -13.812290 2.254300
398 1 15.040749 14.682968 -1.360700
399 1 14.602237 -13.373341 0.446800
400 1 14.163129 -11.619384 2.254300
401 1 16.793906 -14.688532 -3.168200
402 1 16.355249 -12.934814 -1.360700
403 1 15.916711 -11.181254 0.446800
404 1 15.478658 -9.427953 2.254300
405 1 18.108699 -12.496522 -3.168200
406 1 17.670433 -10.743069 -1.360700
407 1 17.232274 -8.989620 0.446800
408 1 16.793906 -7.236011 2.254300
409 1 19.423972 -10.304740 -3.168200
410 1 18.985630 -8.551184 -1.360700
411 1 18.547159 -6.797568 0.446800
412 1 18.108699 -5.044001 2.254300
413 1 20.738994 -8.112788 -3.168200
414 1 20.300584 -6.359229 -1.360700
415 1 19.862248 -4.605717 0.446800
416 1 19.423972 -2.852219 2.254300
417 1 22.054065 -5.920903 -3.168200
418 1 21.615739 -4.167380 -1.360700
419 1 21.177394 -2.413838 0.446800
420 1 20.738994 -0.660267 2.254300
421 1 23.369180 -3.729018 -3.168200
422 1 22.930806 -1.975466 -1.360700
423 1 22.492423 -0.221914 0.446800
424 1 22.054065 1.531619 2.254300
425 1 24.684241 -1.537110 -3.168200
426 1 24.245879 0.216429 -1.360700
427 1 23.807531 1.969963 0.446800
428 1 23.369180 3.723503 2.254300
429 1 25.999333 0.654778 -3.168200
430 1 25.560977 2.408318 -1.360700
431 1 25.122612 4.161864 0.446800
432 1 24.684241 5.915411 2.254300
433 1 27.314417 2.846675 -3.168200
434 1 26.876052 4.600219 -1.360700
435 1 26.437689 6.353761 0.446800
436 1 25.999333 8.107299 2.254300
437 1 28.629497 5.038571 -3.168200
438 1 28.191138 6.792112 -1.360700
439 1 27.752779 8.545653 0.446800
440 1 27.314417 10.299196 2.254300
441 1 29.944583 7.230465 -3.168200
442 1 29.506222 8.984007 -1.360700
443 1 29.067859 10.737550 0.446800
444 1 28.629497 12.491092 2.254300
445 1 31.259666 9.422361 -3.168200
446 1 30.821304 11.175903 -1.360700
447 1 30.382943 12.929445 0.446800
448 1 32.574749 11.614256 -3.168200
449 1 32.136389 13.367798 -1.360700
450 1 33.889833 13.806151 -3.168200
451 1 15.040749 14.682968 2.254300
452 1 16.793906 -14.688532 0.446800
453 1 16.355249 -12.934814 2.254300
454 1 18.547159 -14.250090 -1.360700
455 1 18.108699 -12.496522 0.446800
456 1 17.670433 -10.743069 2.254300
457 1 20.300584 -13.811750 -3.168200
458 1 19.862248 -12.058238 -1.360700
459 1 19.423972 -10.304740 0.446800
460 1 18.985630 -8.551184 2.254300
461 1 21.615739 -11.619902 -3.168200
462 1 21.177394 -9.866359 -1.360700
463 1 20.738994 -8.112788 0.446800
464 1 20.300584 -6.359229 2.254300
465 1 22.930806 -9.427987 -3.168200
466 1 22.492423 -7.674435 -1.360700
467 1 22.054065 -5.920903 0.446800
468 1 21.615739 -4.167380 2.254300
469 1 24.245879 -7.236092 -3.168200
470 1 23.807531 -5.482558 -1.360700
471 1 23.369180 -3.729018 0.446800
472 1 22.930806 -1.975466 2.254300
473 1 25.560977 -5.044203 -3.168200
474 1 25.122612 -3.290657 -1.360700
475 1 24.684241 -1.537110 0.446800
476 1 24.245879 0.216429 2.254300
477 1 26.876052 -2.852302 -3.168200
478 1 26.437689 -1.098761 -1.360700
479 1 25.999333 0.654778 0.446800
480 1 25.560977 2.408318 2.254300
481 1 28.191138 -0.660410 -3.168200
482 1 27.752779 1.093132 -1.360700
483 1 27.314417 2.846675 0.446800
484 1 26.876052 4.600219 2.254300
485 1 29.506222 1.531486 -3.168200
486 1 29.067859 3.285029 -1.360700
487 1 28.629497 5.038571 0.446800
488 1 28.191138 6.792112 2.254300
489 1 30.821304 3.723382 -3.168200
490 1 30.382943 5.476923 -1.360700
491 1 29.944583 7.230465 0.446800
492 1 29.506222 8.984007 2.254300
493 1 32.136389 5.915277 -3.168200
494 1 31.698027 7.668819 -1.360700
495 1 31.259666 9.422361 0.446800
496 1 30.821304 11.175903 2.254300
497 1 33.451472 8.107172 -3.168200
498 1 33.013110 9.860714 -1.360700
499 1 32.574749 11.614256 0.446800
500 1 32.136389 13.367798 2.254300
501 1 34.766555 10.299067 -3.168200
502 1 34.328194 12.052609 -1.360700
503 1 33.889833 13.806151 0.446800
504 1 36.081639 12.490963 -3.168200
505 1 35.643278 14.244505 -1.360700
506 1 18.547159 -14.250090 2.254300
507 1 20.300584 -13.811750 0.446800
508 1 19.862248 -12.058238 2.254300
509 1 22.492423 14.683129 -3.168200
510 1 22.054065 -13.373424 -1.360700
511 1 21.615739 -11.619902 0.446800
512 1 21.177394 -9.866359 2.254300
513 1 23.807531 -12.935080 -3.168200
514 1 23.369180 -11.181540 -1.360700
515 1 22.930806 -9.427987 0.446800
516 1 22.492423 -7.674435 2.254300
517 1 25.122612 -10.743178 -3.168200
518 1 24.684241 -8.989632 -1.360700
519 1 24.245879 -7.236092 0.446800
520 1 23.807531 -5.482558 2.254300
521 1 26.437689 -8.551282 -3.168200
522 1 25.999333 -6.797743 -1.360700
523 1 25.560977 -5.044203 0.446800
524 1 25.122612 -3.290657 2.254300
525 1 27.752779 -6.359390 -3.168200
526 1 27.314417 -4.605847 -1.360700
527 1 26.876052 -2.852302 0.446800
528 1 26.437689 -1.098761 2.254300
529 1 29.067859 -4.167492 -3.168200
530 1 28.629497 -2.413950 -1.360700
531 1 28.191138 -0.660410 0.446800
532 1 27.752779 1.093132 2.254300
533 1 30.382943 -1.975598 -3.168200
534 1 29.944583 -0.222056 -1.360700
535 1 29.506222 1.531486 0.446800
536 1 29.067859 3.285029 2.254300
537 1 31.698027 0.216297 -3.168200
538 1 31.259666 1.969840 -1.360700
539 1 30.821304 3.723382 0.446800
540 1 30.382943 5.476923 2.254300
541 1 33.013110 2.408193 -3.168200
542 1 32.574749 4.161735 -1.360700
543 1 32.136389 5.915277 0.446800
544 1 31.698027 7.668819 2.254300
545 1 34.328194 4.600088 -3.168200
546 1 33.889833 6.353630 -1.360700
547 1 33.451472 8.107172 0.446800
548 1 33.013110 9.860714 2.254300
549 1 35.643278 6.791983 -3.168200
550 1 35.204916 8.545525 -1.360700
551 1 34.766555 10.299067 0.446800
552 1 34.328194 12.052609 2.254300
553 1 36.958361 8.983879 -3.168200
554 1 36.520000 10.737421 -1.360700
555 1 36.081639 12.490963 0.446800
556 1 35.643278 14.244505 2.254300
557 1 38.273445 11.175774 -3.168200
558 1 37.835083 12.929316 -1.360700
559 1 39.588528 13.367669 -3.168200
560 1 22.492423 14.683129 0.446800
561 1 22.054065 -13.373424 2.254300
562 1 24.245879 -14.688613 -1.360700
563 1 23.807531 -12.935080 0.446800
564 1 23.369180 -11.181540 2.254300
565 1 25.999333 -14.250265 -3.168200
566 1 25.560977 -12.496724 -1.360700
567 1 25.122612 -10.743178 0.446800
568 1 24.684241 -8.989632 2.254300
569 1 27.314417 -12.058368 -3.168200
570 1 26.876052 -10.304824 -1.360700
571 1 26.437689 -8.551282 0.446800
572 1 25.999333 -6.797743 2.254300
573 1 28.629497 -9.866472 -3.168200
574 1 28.191138 -8.112931 -1.360700
575 1 27.752779 -6.359390 0.446800
576 1 27.314417 -4.605847 2.254300
577 1 29.944583 -7.674578 -3.168200
578 1 29.506222 -5.921035 -1.360700
579 1 29.067859 -4.167492 0.446800
580 1 28.629497 -2.413950 2.254300
581 1 31.259666 -5.482682 -3.168200
582 1 30.821304 -3.729139 -1.360700
583 1 30.382943 -1.975598 0.446800
584 1 29.944583 -0.222056 2.254300
585 1 32.574749 -3.290787 -3.168200
586 1 32.136389 -1.537245 -1.360700
587 1 31.698027 0.216297 0.446800
588 1 31.259666 1.969840 2.254300
589 1 33.889833 -1.098891 -3.168200
590 1 33.451472 0.654651 -1.360700
591 1 33.013110 2.408193 0.446800
592 1 32.574749 4.161735 2.254300
593 1 35.204916 1.093004 -3.168200
594 1 34.766555 2.846546 -1.360700
595 1 34.328194 4.600088 0.446800
596 1 33.889833 6.353630 2.254300
597 1 36.520000 3.284899 -3.168200
598 1 36.081639 5.038441 -1.360700
599 1 35.643278 6.791983 0.446800
600 1 35.204916 8.545525 2.254300
601 1 37.835083 5.476795 -3.168200
602 1 37.396722 7.230337 -1.360700
603 1 36.958361 8.983879 0.446800
604 1 36.520000 10.737421 2.254300
605 1 39.150167 7.668690 -3.168200
606 1 38.711806 9.422232 -1.360700
607 1 38.273445 11.175774 0.446800
608 1 37.835083 12.929316 2.254300
609 1 40.465250 9.860585 -3.168200
610 1 40.026889 11.614127 -1.360700
611 1 39.588528 13.367669 0.446800
612 1 41.780334 12.052480 -3.168200
613 1 41.341973 13.806022 -1.360700
614 1 43.095417 14.244376 -3.168200
615 1 24.245879 -14.688613 2.254300
616 1 25.999333 -14.250265 0.446800
617 1 25.560977 -12.496724 2.254300
618 1 27.752779 -13.811911 -1.360700
619 1 27.314417 -12.058368 0.446800
620 1 26.876052 -10.304824 2.254300
621 1 29.506222 -13.373557 -3.168200
622 1 29.067859 -11.620014 -1.360700
623 1 28.629497 -9.866472 0.446800
624 1 28.191138 -8.112931 2.254300
625 1 30.821304 -11.181661 -3.168200
626 1 30.382943 -9.428119 -1.360700
627 1 29.944583 -7.674578 0.446800
628 1 29.506222 -5.921035 2.254300
629 1 32.136389 -8.989766 -3.168200
630 1 31.698027 -7.236224 -1.360700
631 1 31.259666 -5.482682 0.446800
632 1 30.821304 -3.729139 2.254300
633 1 33.451472 -6.797870 -3.168200
634 1 33.013110 -5.044328 -1.360700
635 1 32.574749 -3.290787 0.446800
636 1 32.136389 -1.537245 2.254300
637 1 34.766555 -4.605975 -3.168200
638 1 34.328194 -2.852433 -1.360700
639 1 33.889833 -1.098891 0.446800
640 1 33.451472 0.654651 2.254300
641 1 36.081639 -2.414080 -3.168200
642 1 35.643278 -0.660538 -1.360700
643 1 35.204916 1.093004 0.446800
644 1 34.766555 2.846546 2.254300
645 1 37.396722 -0.222185 -3.168200
646 1 36.958361 1.531357 -1.360700
647 1 36.520000 3.284899 0.446800
648 1 36.081639 5.038441 2.254300
649 1 38.711806 1.969711 -3.168200
650 1 38.273445 3.723253 -1.360700
651 1 37.835083 5.476795 0.446800
652 1 37.396722 7.230337 2.254300
653 1 40.026889 4.161606 -3.168200
654 1 39.588528 5.915148 -1.360700
655 1 39.150167 7.668690 0.446800
656 1 38.711806 9.422232 2.254300
657 1 41.341973 6.353501 -3.168200
658 1 40.903612 8.107043 -1.360700
659 1 40.465250 9.860585 0.446800
660 1 40.026889 11.614127 2.254300
661 1 42.657056 8.545396 -3.168200
662 1 42.218695 10.298938 -1.360700
663 1 41.780334 12.052480 0.446800
664 1 41.341973 13.806022 2.254300
665 1 43.972140 10.737292 -3.168200
666 1 43.533779 12.490834 -1.360700
667 1 43.095417 14.244376 0.446800
668 1 45.287223 12.929187 -3.168200
669 1 27.752779 -13.811911 2.254300
670 1 29.944583 14.682986 -1.360700
671 1 29.506222 -13.373557 0.446800
672 1 29.067859 -11.620014 2.254300
673 1 31.698027 -14.688745 -3.168200
674 1 31.259666 -12.935203 -1.360700
675 1 30.821304 -11.181661 0.446800
676 1 30.382943 -9.428119 2.254300
677 1 33.013110 -12.496850 -3.168200
678 1 32.574749 -10.743308 -1.360700
679 1 32.136389 -8.989766 0.446800
680 1 31.698027 -7.236224 2.254300
681 1 34.328194 -10.304955 -3.168200
682 1 33.889833 -8.551413 -1.360700
683 1 33.451472 -6.797870 0.446800
684 1 33.013110 -5.044328 2.254300
685 1 35.643278 -8.113059 -3.168200
686 1 35.204916 -6.359517 -1.360700
687 1 34.766555 -4.605975 0.446800
688 1 34.328194 -2.852433 2.254300
689 1 36.958361 -5.921164 -3.168200
690 1 36.520000 -4.167622 -1.360700
691 1 36.081639 -2.414080 0.446800
692 1 35.643278 -0.660538 2.254300
693 1 38.273445 -3.729269 -3.168200
694 1 37.835083 -1.975727 -1.360700
695 1 37.396722 -0.222185 0.446800
696 1 36.958361 1.531357 2.254300
697 1 39.588528 -1.537373 -3.168200
698 1 39.150167 0.216169 -1.360700
699 1 38.711806 1.969711 0.446800
700 1 38.273445 3.723253 2.254300
701 1 40.903612 0.654522 -3.168200
702 1 40.465250 2.408064 -1.360700
703 1 40.026889 4.161606 0.446800
704 1 39.588528 5.915148 2.254300
705 1 42.218695 2.846417 -3.168200
706 1 41.780334 4.599959 -1.360700
707 1 41.341973 6.353501 0.446800
708 1 40.903612 8.107043 2.254300
709 1 43.533779 5.038312 -3.168200
710 1 43.095417 6.791854 -1.360700
711 1 42.657056 8.545396 0.446800
712 1 42.218695 10.298938 2.254300
713 1 44.848862 7.230208 -3.168200
714 1 44.410501 8.983750 -1.360700
715 1 43.972140 10.737292 0.446800
716 1 43.533779 12.490834 2.254300
717 1 46.163946 9.422103 -3.168200
718 1 45.725584 11.175645 -1.360700
719 1 45.287223 12.929187 0.446800
720 1 47.479029 11.613998 -3.168200
721 1 47.040668 13.367540 -1.360700
722 1 48.794113 13.805893 -3.168200
723 1 29.944583 14.682986 2.254300
724 1 31.698027 -14.688745 0.446800
725 1 31.259666 -12.935203 2.254300
726 1 33.451472 -14.250392 -1.360700
727 1 33.013110 -12.496850 0.446800
728 1 32.574749 -10.743308 2.254300
729 1 35.204916 -13.812039 -3.168200
730 1 34.766555 -12.058497 -1.360700
731 1 34.328194 -10.304955 0.446800
732 1 33.889833 -8.551413 2.254300
733 1 36.520000 -11.620143 -3.168200
734 1 36.081639 -9.866601 -1.360700
735 1 35.643278 -8.113059 0.446800
736 1 35.204916 -6.359517 2.254300
737 1 37.835083 -9.428248 -3.168200
738 1 37.396722 -7.674706 -1.360700
739 1 36.958361 -5.921164 0.446800
740 1 36.520000 -4.167622 2.254300
741 1 39.150167 -7.236353 -3.168200
742 1 38.711806 -5.482811 -1.360700
743 1 38.273445 -3.729269 0.446800
744 1 37.835083 -1.975727 2.254300
745 1 40.465250 -5.044457 -3.168200
746 1 40.026889 -3.290915 -1.360700
747 1 39.588528 -1.537373 0.446800
748 1 39.150167 0.216169 2.254300
749 1 41.780334 -2.852562 -3.168200
750 1 41.341973 -1.099020 -1.360700
751 1 40.903612 0.654522 0.446800
752 1 40.465250 2.408064 2.254300
753 1 43.095417 -0.660667 -3.168200
754 1 42.657056 1.092875 -1.360700
755 1 42.218695 2.846417 0.446800
756 1 41.780334 4.599959 2.254300
757 1 44.410501 1.531228 -3.168200
758 1 43.972140 3.284770 -1.360700
759 1 43.533779 5.038312 0.446800
760 1 43.095417 6.791854 2.254300
761 1 45.725584 3.723124 -3.168200
762 1 45.287223 5.476666 -1.360700
763 1 44.848862 7.230208 0.446800
764 1 44.410501 8.983750 2.254300
765 1 47.040668 5.915019 -3.168200
766 1 46.602307 7.668561 -1.360700
767 1 46.163946 9.422103 0.446800
768 1 45.725584 11.175645 2.254300
769 1 48.355751 8.106914 -3.168200
770 1 47.917390 9.860456 -1.360700
771 1 47.479029 11.613998 0.446800
772 1 47.040668 13.367540 2.254300
773 1 49.670835 10.298809 -3.168200
774 1 49.232474 12.052351 -1.360700
775 1 48.794113 13.805893 0.446800
776 1 50.985918 12.490705 -3.168200
777 1 50.547557 14.244247 -1.360700
778 1 33.451472 -14.250392 2.254300
779 1 35.204916 -13.812039 0.446800
780 1 34.766555 -12.058497 2.254300
781 1 37.396722 14.682858 -3.168200
782 1 36.958361 -13.373685 -1.360700
783 1 36.520000 -11.620143 0.446800
784 1 36.081639 -9.866601 2.254300
785 1 38.711806 -12.935332 -3.168200
786 1 38.273445 -11.181790 -1.360700
787 1 37.835083 -9.428248 0.446800
788 1 37.396722 -7.674706 2.254300
789 1 40.026889 -10.743437 -3.168200
790 1 39.588528 -8.989895 -1.360700
791 1 39.150167 -7.236353 0.446800
792 1 38.711806 -5.482811 2.254300
793 1 41.341973 -8.551542 -3.168200
794 1 40.903612 -6.798000 -1.360700
795 1 40.465250 -5.044457 0.446800
796 1 40.026889 -3.290915 2.254300
797 1 42.657056 -6.359646 -3.168200
798 1 42.218695 -4.606104 -1.360700
799 1 41.780334 -2.852562 0.446800
800 1 41.341973 -1.099020 2.254300
801 1 43.972140 -4.167751 -3.168200
802 1 43.533779 -2.414209 -1.360700
803 1 43.095417 -0.660667 0.446800
804 1 42.657056 1.092875 2.254300
805 1 45.287223 -1.975856 -3.168200
806 1 44.848862 -0.222314 -1.360700
807 1 44.410501 1.531228 0.446800
808 1 43.972140 3.284770 2.254300
809 1 46.602307 0.216040 -3.168200
810 1 46.163946 1.969582 -1.360700
811 1 45.725584 3.723124 0.446800
812 1 45.287223 5.476666 2.254300
813 1 47.917390 2.407935 -3.168200
814 1 47.479029 4.161477 -1.360700
815 1 47.040668 5.915019 0.446800
816 1 46.602307 7.668561 2.254300
817 1 49.232474 4.599830 -3.168200
818 1 48.794113 6.353372 -1.360700
819 1 48.355751 8.106914 0.446800
820 1 47.917390 9.860456 2.254300
821 1 50.547557 6.791725 -3.168200
822 1 50.109196 8.545267 -1.360700
823 1 49.670835 10.298809 0.446800
824 1 49.232474 12.052351 2.254300
825 1 51.862641 8.983621 -3.168200
826 1 51.424280 10.737163 -1.360700
827 1 50.985918 12.490705 0.446800
828 1 50.547557 14.244247 2.254300
829 1 53.177724 11.175516 -3.168200
830 1 52.739363 12.929058 -1.360700
831 1 54.492808 13.367411 -3.168200
832 1 37.396722 14.682858 0.446800
833 1 36.958361 -13.373685 2.254300
834 1 39.150167 -14.688874 -1.360700
835 1 38.711806 -12.935332 0.446800
836 1 38.273445 -11.181790 2.254300
837 1 40.903612 -14.250521 -3.168200
838 1 40.465250 -12.496979 -1.360700
839 1 40.026889 -10.743437 0.446800
840 1 39.588528 -8.989895 2.254300
841 1 42.218695 -12.058626 -3.168200
842 1 41.780334 -10.305084 -1.360700
843 1 41.341973 -8.551542 0.446800
844 1 40.903612 -6.798000 2.254300
845 1 43.533779 -9.866730 -3.168200
846 1 43.095417 -8.113188 -1.360700
847 1 42.657056 -6.359646 0.446800
848 1 42.218695 -4.606104 2.254300
849 1 44.848862 -7.674835 -3.168200
850 1 44.410501 -5.921293 -1.360700
851 1 43.972140 -4.167751 0.446800
852 1 43.533779 -2.414209 2.254300