LAMMPS data file via write_data, version 29 Aug 2024, timestep = 673, units = metal

3656 atoms
2 atom types

-100.1 100.1 xlo xhi
-14.90504265 14.90504265 ylo yhi
-3.615 3.615 zlo zhi
0 0 0 xy xz yz

Masses

1 63.55
2 63.55

Atoms # atomic

1 1 0.6854518346259368 13.251427064777731 -3.165218792306733 0 0 0
2 2 -0.3262112318795545 7.688786867622911 -1.3577184523374628 0 0 0
3 1 0.822932252777747 9.337484401856203 -3.16521878270819 0 0 0
4 1 0.8403870472648549 11.224336059676817 -1.3577187923878808 0 0 0
5 1 0.6854518324310561 13.251427067281716 0.44978122189515346 0 0 0
6 1 2.615317563860515 11.668287975059217 -3.1652189877183443 0 0 0
7 1 2.324234785077337 13.50234372865358 -1.3577189444699733 0 0 0
8 1 4.011205544858271 13.924086100968635 -3.165219062336267 0 0 0
9 2 0.865095870960289 5.55480810428036 -1.3577187305881206 0 0 0
10 2 0.8801232512265216 3.7257736936917656 0.4497812680606538 0 0 0
11 2 -0.3262112380875095 7.688786872571983 2.257281549600865 0 0 0
12 1 2.3884270687130424 6.008708701747073 -3.165218935681002 0 0 0
13 1 2.00533438448646 7.802183192836493 -1.3577190494082896 0 0 0
14 1 0.8229322527450478 9.337484402151157 0.44978121761089573 0 0 0
15 1 0.840387049093863 11.2243360607927 2.257281207898343 0 0 0
16 1 3.5977184571221272 8.267929129253075 -3.165219109846811 0 0 0
17 1 3.0468183015448034 9.998355846063793 -1.357719067372033 0 0 0
18 1 2.6153175648874765 11.66828797414862 0.44978101226216427 0 0 0
19 1 2.3242347834710415 13.502343725850542 2.257281055430688 0 0 0
20 1 4.866875007487053 10.43379607599463 -3.1652191862162096 0 0 0
21 1 4.436514491107019 12.154775428326891 -1.3577191460204505 0 0 0
22 1 4.011205546480056 13.924086098571896 0.4497809371467509 0 0 0
23 1 6.207944123737519 12.607795198014438 -3.16521922551914 0 0 0
24 1 5.77598223054089 14.354574308434158 -1.3577191833780997 0 0 0
25 2 0.9051500684120697 -3.729624831147426 -1.3577187214979112 0 0 0
26 2 -0.30347553017175244 0.24276310232289333 0.4497816728237167 0 0 0
27 1 2.030730257439501 0.33596894789413767 -3.1652190851288706 0 0 0
28 2 0.8259912061393067 1.8707466790066025 -1.3577187087386875 0 0 0
29 2 0.8650958743083095 5.55480810189003 2.2572812456963898 0 0 0
30 2 0.8801232527700762 3.725773687419535 -3.1652187322693894 0 0 1
31 1 3.1185412503611474 2.4953208424866826 -3.1652191368945535 0 0 0
32 1 2.7599796083287202 4.116839708020214 -1.357719065556607 0 0 0
33 1 2.388427053427918 6.008708696729739 0.44978106578189214 0 0 0
34 1 2.0053343875696754 7.80218319422964 2.2572809520312584 0 0 0
35 1 4.513597726515258 4.660480358620083 -3.1652192003801543 0 0 0
36 1 4.082059962850664 6.412652549499386 -1.3577191092780962 0 0 0
37 1 3.597718459491375 8.267929133522768 0.4497808905778532 0 0 0
38 1 3.0468183011688836 9.998355846590696 2.2572809312757847 0 0 0
39 1 5.782072957022663 6.905711333557944 -3.165219242472921 0 0 0
40 1 5.310878036545645 8.675407839192838 -1.357719205110122 0 0 0
41 1 4.866875006100798 10.433796074795309 0.44978081322541313 0 0 0
42 1 4.436514490842342 12.15477542789847 2.257280853352813 0 0 0
43 1 7.074862702028781 9.110078452283195 -3.1652192786030535 0 0 0
44 1 6.6419365504162755 10.858095103126468 -1.3577192438914134 0 0 0
45 1 6.207944123104497 12.607795198893774 0.4497807746745389 0 0 0
46 1 5.775982229928061 14.354574308888457 2.2572808163974876 0 0 0
47 1 8.4093287375308 11.293730415881408 -3.1652193104330397 0 0 0
48 1 7.97884689498963 13.039906540138015 -1.357719303246671 0 0 0
49 1 9.752590350221269 13.471909367003002 -3.165219338505509 0 0 0
50 1 -0.30212754196142555 -7.2212610797418275 -1.3577184685607069 0 0 0
51 2 0.7841921351436412 -5.577242579051811 0.4497812626327922 0 0 0
52 2 0.8836393100052078 -1.899622172891755 0.44978128214314533 0 0 0
53 2 0.9051500680809141 -3.7296248352260637 2.257281279039441 0 0 0
54 2 -0.30347553618631196 0.2427631083558488 -3.1652183284961173 0 0 1
55 1 2.794411473505221 -3.3162326749521345 -3.1652190912061777 0 0 0
56 1 2.4157576245822128 -1.4502856216919628 -1.3577189541936001 0 0 0
57 1 2.030730255554815 0.33596894796849064 0.4497809160980793 0 0 0
58 2 0.8259912056747254 1.8707466787214688 2.2572812921079755 0 0 0
59 1 4.122411955116476 -1.036225556010022 -3.16521915705539 0 0 0
60 1 3.645212839930025 0.7927689897768371 -1.3577191612374513 0 0 0
61 1 3.118541251669427 2.495320841429182 0.44978086182819316 0 0 0
62 1 2.7599796054181667 4.116839709647229 2.25728093422529 0 0 0
63 1 5.380820019939279 1.201652746306257 -3.165219277753464 0 0 0
64 1 4.965951561832128 2.936239752557716 -1.357719255768227 0 0 0
65 1 4.513597729991375 4.660480354531922 0.4497808005060278 0 0 0
66 1 4.082059962107053 6.412652549691318 2.257280897716709 0 0 0
67 1 6.7159881385138505 3.3889149309616062 -3.165219330223505 0 0 0
68 1 6.263768319795204 5.139585190091152 -1.3577193008695174 0 0 0
69 1 5.782072959416297 6.905711334650901 0.449780757226522 0 0 0
70 1 5.310878036848706 8.675407839580378 2.257280793760104 0 0 0
71 1 7.9962673222247815 5.603978475300698 -3.1652193786840015 0 0 0
72 1 7.5282489932617835 7.359749913455209 -1.3577193283587405 0 0 0
73 1 7.074862702006712 9.110078451251434 0.44978072157770654 0 0 0
74 1 6.641936550071435 10.858095103174625 2.2572807570081035 0 0 0
75 1 9.289148785780853 7.802470865752495 -3.1652193864294302 0 0 0
76 1 8.845370182195296 9.547854934124862 -1.3577193378051913 0 0 0
77 1 8.409328738209098 11.293730415734968 0.4497806895194158 0 0 0
78 1 7.978846895210452 13.039906540066829 2.257280697743352 0 0 0
79 1 10.613567732889848 9.985697339690079 -3.165219368207608 0 0 0
80 1 10.179251840961143 11.729270665393647 -1.3577193410693384 0 0 0
81 1 9.75259035088655 13.471909366643422 0.4497806617559205 0 0 0
82 1 11.949013801708773 12.165203258987214 -3.1652193616186386 0 0 0
83 1 11.521809423079404 13.90853033853701 -1.3577193633835913 0 0 0
84 1 13.284399017035213 14.348636437291818 -3.1652193834261646 0 0 0
85 1 0.9932998909914801 -11.008446906806103 -3.1652188335591127 0 0 0
86 1 0.8917155461180357 -9.320218704086036 -1.3577187464224505 0 0 0
87 1 -0.30212754883152115 -7.221261075732137 2.2572815311413024 0 0 0
88 1 2.439600969465559 -8.797839692731142 -3.165218949784936 0 0 0
89 1 2.035481613433163 -7.045924814657695 -1.3577190144060147 0 0 0
90 2 0.7841921351016339 -5.577242579377549 -3.165218736625418 0 0 1
91 2 0.883639314941064 -1.8996221756881386 -3.165218703061848 0 0 1
92 1 3.681367653204333 -6.594020507241009 -3.16521912493147 0 0 0
93 1 3.1705282377986492 -4.915599330843007 -1.357719154383133 0 0 0
94 1 2.794411474858407 -3.3162326767446615 0.4497809055654329 0 0 0
95 1 2.415757632927921 -1.4502856183408603 2.2572810473697404 0 0 0
96 1 5.01855777444878 -4.475145951908756 -3.1652192661360736 0 0 0
97 1 4.561928742047897 -2.767565075260757 -1.3577192298178888 0 0 0
98 1 4.122411955024788 -1.0362255550953314 0.44978084789578565 0 0 0
99 1 3.6452128379746966 0.79276898600998 2.25728083777315 0 0 0
100 1 6.319315758537442 -2.292267826354026 -3.165219332980825 0 0 0
101 1 5.840849573766391 -0.5443353196649614 -1.357719295440526 0 0 0
102 1 5.380820018971178 1.2016527465221056 0.4497807214356519 0 0 0
103 1 4.96595156295011 2.9362397538218676 2.257280742340885 0 0 0
104 1 7.597886886750288 -0.09282982895661362 -3.165219370025556 0 0 0
105 1 7.15440164961052 1.6441884639326023 -1.357719352335692 0 0 0
106 1 6.71598813652993 3.3889149322319394 0.4497806708052794 0 0 0
107 1 6.2637683194079585 5.139585189625093 2.257280698220833 0 0 0
108 1 8.910795394858837 2.095397111356858 -3.165219399470647 0 0 0
109 1 8.459474684130555 3.845733710172146 -1.3577193817080049 0 0 0
110 1 7.996267321431688 5.603978475650079 0.44978062109611555 0 0 0
111 1 7.528248993287036 7.359749913870095 2.2572806707235156 0 0 0
112 1 10.201995117232386 4.298264480334799 -3.1652194485411247 0 0 0
113 1 9.743081561668092 6.052369200450334 -1.3577194326722708 0 0 0
114 1 9.289148785402645 7.802470865847907 0.4497806137163456 0 0 0
115 1 8.845370181653522 9.547854934478393 2.2572806620043013 0 0 0
116 1 11.499280429571044 6.493281234924195 -3.1652194560179203 0 0 0
117 1 11.053500825321947 8.240794863263963 -1.35771941162239 0 0 0
118 1 10.61356773251137 9.98569733990958 0.44978063188018497 0 0 0
119 1 10.179251841244621 11.729270665624119 2.2572806585011924 0 0 0
120 1 12.81783409600095 8.677235247490424 -3.1652194209967868 0 0 0
121 1 12.381012453770367 10.4220030658692 -1.3577193955930345 0 0 0
122 1 11.949013801277175 12.165203259497565 0.4497806381212788 0 0 0
123 1 11.521809423119166 13.908530338568175 2.2572806360996593 0 0 0
124 1 14.14678252754534 10.857951275633342 -3.1652194133446585 0 0 0
125 1 13.714969714830332 12.602709678882198 -1.3577193898677644 0 0 0
126 1 13.284399016439536 14.348636437383446 0.4497806166379435 0 0 0
127 1 15.476373090173183 13.041521521365018 -3.1652194148653607 0 0 0
128 1 0.33718951414866183 -14.719988205365162 -1.3577190016557792 0 1 0
129 1 1.9232200191622155 -14.373431656435542 -3.1652189869155563 0 0 0
130 1 1.387048349112149 -12.592622785720964 -1.357718870135489 0 0 0
131 1 0.9932998926372107 -11.00844690677572 0.449781171631997 0 0 0
132 1 0.8917155544989726 -9.32021871022274 2.257281254598318 0 0 0
133 1 3.2418612174771795 -12.290996707760609 -3.165219046577685 0 0 0
134 1 2.919103255132711 -10.596181165526385 -1.3577189879161216 0 0 0
135 1 2.4396009690318152 -8.797839694836348 0.4497810535662486 0 0 0
136 1 2.0354816216673868 -7.0459248107472146 2.2572809864749135 0 0 0
137 1 4.615155205243397 -10.14806376368084 -3.1652190792337813 0 0 0
138 1 4.169673944237616 -8.385203918568466 -1.3577190608413887 0 0 0
139 1 3.6813676555714068 -6.59402050464319 0.44978088024220325 0 0 0
140 1 3.170528237575141 -4.915599337274708 2.257280844510665 0 0 0
141 1 5.883382407181287 -7.95025757703767 -3.1652192064164995 0 0 0
142 1 5.435874118664316 -6.1972332775580945 -1.3577192391955466 0 0 0
143 1 5.018557773621097 -4.475145954892966 0.44978073140040875 0 0 0
144 1 4.561928741382673 -2.7675650706427106 2.25728077185813 0 0 0
145 1 7.202474109169643 -5.783720179698351 -3.1652193388993135 0 0 0
146 1 6.770836656784155 -4.034709778374955 -1.3577193498801146 0 0 0
147 1 6.319315760170994 -2.2922678249002413 0.4497806676110619 0 0 0
148 1 5.840849571732633 -0.5443353214097488 2.257280704342777 0 0 0
149 1 8.51121678230028 -3.596924253833027 -3.165219423469492 0 0 0
150 1 8.057204225012825 -1.8389479617228144 -1.357719419656726 0 0 0
151 1 7.597886886953731 -0.09282983050978899 0.44978062901873833 0 0 0
152 1 7.154401650537778 1.6441884651079288 2.2572806490859363 0 0 0
153 1 9.802489958278741 -1.4016592875218983 -3.1652194548856603 0 0 0
154 1 9.356676412406173 0.3489948707501629 -1.3577194427478312 0 0 0
155 1 8.91079539604739 2.0953971114098078 0.4497806007899302 0 0 0
156 1 8.459474684057867 3.8457337097995836 2.2572806188680015 0 0 0
157 1 11.106488832329276 0.7890860831972208 -3.1652194803447977 0 0 0
158 1 10.657857189318776 2.5434165362109535 -1.3577194573011608 0 0 0
159 1 10.201995117378814 4.298264479602468 0.44978055102426007 0 0 0
160 1 9.743081561885361 6.052369201073683 2.2572805678009136 0 0 0
161 1 12.402844909503656 2.9862222334555657 -3.1652195000346977 0 0 0
162 1 11.950445276034529 4.741681652703802 -1.3577194840333633 0 0 0
163 1 11.499280429808607 6.49328123511644 0.4497805442964247 0 0 0
164 1 11.053500825074963 8.240794863066734 2.257280588393001 0 0 0
165 1 13.703621450701434 5.179183208968853 -3.1652194921504777 0 0 0
166 1 13.258858785103442 6.929976474031461 -1.3577194588602979 0 0 0
167 1 12.817834096193806 8.677235247251913 0.4497805788834209 0 0 0
168 1 12.381012453677045 10.422003065945765 2.2572806046316902 0 0 0
169 1 15.019055524446387 7.364549477279985 -3.1652194836711334 0 0 0
170 1 14.58141314392671 9.112335729214083 -1.357719443433256 0 0 0
171 1 14.146782527837061 10.857951275534111 0.44978058688739403 0 0 0
172 1 13.714969714825045 12.602709678606592 2.2572806103501133 0 0 0
173 1 16.34339745826425 9.547113440469884 -3.165219482353938 0 0 0
174 1 15.909496833300409 11.294415879051781 -1.3577194510911694 0 0 0
175 1 15.476373090349483 13.041521521034342 0.44978058526206466 0 0 0
176 1 17.668988684892597 11.731539171928665 -3.165219489805076 0 0 0
177 1 17.23442531237066 13.480755985900318 -1.3577194756054363 0 0 0
178 1 18.990379051413072 13.919921072381799 -3.1652195013776394 0 0 0
179 1 0.33718948638893664 -14.719988229588878 2.257280994660929 0 1 0
180 1 1.9232200091657745 -14.37343166338281 0.44978100131786086 0 0 0
181 1 1.3870483526535224 -12.592622769643416 2.257281130506946 0 0 0
182 1 3.613045819480547 -14.069984277434374 -1.3577190849618754 0 0 0
183 1 3.241861220984376 -12.290996697068184 0.44978095318139627 0 0 0
184 1 2.919103247310815 -10.596181163696203 2.257281005864712 0 0 0
185 1 5.380366763670878 -13.70133815590147 -3.1652191747780063 0 0 0
186 1 5.024580273450354 -11.937845882482344 -1.3577191560730733 0 0 0
187 1 4.615155199431243 -10.14806376871202 0.4497809187452274 0 0 0
188 1 4.169673941901749 -8.385203915879295 2.257280941284032 0 0 0
189 1 6.753745238367401 -11.516812813511327 -3.1652192666674055 0 0 0
190 1 6.332074338758801 -9.735073086181373 -1.357719213085722 0 0 0
191 1 5.883382409370455 -7.9502575722090905 0.44978079330373294 0 0 0
192 1 5.435874117105385 -6.197233278361926 2.257280757622167 0 0 0
193 1 8.058727709367332 -9.309410908966385 -3.1652193197573744 0 0 0
194 1 7.626560555214823 -7.540171252734626 -1.3577193112939165 0 0 0
195 1 7.202474106496069 -5.7837201824585645 0.44978066041782216 0 0 0
196 1 6.7708366584630255 -4.0347097780077785 2.2572806516869064 0 0 0
197 1 9.376521455878773 -7.1193476903365545 -3.165219366640418 0 0 0
198 1 8.949141545158156 -5.357653754539761 -1.3577194007419042 0 0 0
199 1 8.511216782741585 -3.596924251497276 0.44978057721980713 0 0 0
200 1 8.057204224639548 -1.8389479623873868 2.2572805786134325 0 0 0
201 1 10.690017101822818 -4.9247639245612636 -3.16521943803658 0 0 0
202 1 10.249005237029309 -3.16083518115083 -1.3577194632877871 0 0 0
203 1 9.802489957139557 -1.401659288491878 0.4497805450447601 0 0 0
204 1 9.356676412879494 0.34899487145046315 2.257280557730565 0 0 0
205 1 11.991451464504195 -2.726373957288404 -3.165219489502367 0 0 0
206 1 11.549912994113527 -0.9669289975551862 -1.3577194866496696 0 0 0
207 1 11.106488832505576 0.7890860841840865 0.44978052013616787 0 0 0
208 1 10.657857189063876 2.543416536011174 2.2572805418139112 0 0 0
209 1 13.295922608636161 -0.5307501462077173 -3.165219496955227 0 0 0
210 1 12.851821913807271 1.2283081558307192 -1.3577195081817532 0 0 0
211 1 12.402844908841232 2.986222233079454 0.44978049952928156 0 0 0
212 1 11.950445275855657 4.7416816526222885 2.2572805159329685 0 0 0
213 1 14.597270167286098 1.6662753978019094 -3.1652195352673136 0 0 0
214 1 14.15062631335691 3.424323985056853 -1.3577195312387413 0 0 0
215 1 13.703621450683315 5.179183209424609 0.4497805082273627 0 0 0
216 1 13.25885878523792 6.92997647399118 2.257280540638328 0 0 0
217 1 15.901819728913011 3.859765921303973 -3.1652195465029074 0 0 0
218 1 15.45937893957732 5.6137935980854206 -1.3577195317105046 0 0 0
219 1 15.019055524223077 7.364549477143244 0.44978051618063386 0 0 0
220 1 14.581413143835888 9.11233572914954 2.2572805565990843 0 0 0
221 1 17.216332086534493 6.04746317008683 -3.165219559159324 0 0 0
222 1 16.778924298623977 7.798372677569676 -1.357719529709868 0 0 0
223 1 16.343397458263937 9.547113440665202 0.44978051793425017 0 0 0
224 1 15.909496833329044 11.294415878977718 2.2572805484934406 0 0 0
225 1 18.537898058666016 8.232475036693094 -3.1652195474528204 0 0 0
226 1 18.103215394542104 9.982368672681423 -1.3577195106486422 0 0 0
227 1 17.668988684731957 11.731539172023387 0.4497805101560419 0 0 0
228 1 17.234425312415198 13.480755985930754 2.257280524288722 0 0 0
229 1 19.860923248846717 10.418401539691237 -3.165219551248364 0 0 0
230 1 19.42599396330243 12.169124826160482 -1.3577195291185475 0 0 0
231 1 18.990379051190914 13.919921072692395 0.4497804984258331 0 0 0
232 1 21.18133666864398 12.607022485264158 -3.1652196049880406 0 0 0
233 1 20.745000421701036 14.358939347393926 -1.3577195769107018 0 0 0
234 1 3.613045821824997 -14.069984276929688 2.257280922905542 0 0 0
235 1 5.380366767783585 -13.701338154976412 0.44978082628941785 0 0 0
236 1 5.024580275906956 -11.937845883923998 2.2572808414967898 0 0 0
237 1 7.5595205815005215 14.78189160229003 -3.165219277390422 0 0 0
238 1 7.157999168424055 -13.28429701034093 -1.357719275860448 0 0 0
239 1 6.753745238176833 -11.516812816631637 0.44978073390885903 0 0 0
240 1 6.33207434032434 -9.735073086581956 2.2572807913697672 0 0 0
241 1 8.915227594795851 -12.844757761793876 -3.1652193344268826 0 0 0
242 1 8.490571807642183 -11.082595232427629 -1.3577193368433589 0 0 0
243 1 8.058727711572175 -9.309410907310799 0.4497806808523843 0 0 0
244 1 7.626560555175388 -7.540171253439686 2.2572806870777136 0 0 0
245 1 10.23461565012289 -10.643558607274866 -3.1652193881969635 0 0 0
246 1 9.803095335131545 -8.88154548093963 -1.3577193811983774 0 0 0
247 1 9.376521455208817 -7.1193476923120125 0.44978063350319214 0 0 0
248 1 8.94914154482872 -5.357653754040376 2.2572806011855016 0 0 0
249 1 11.553658420203107 -8.44756099951233 -3.165219414031502 0 0 0
250 1 11.123493479890953 -6.687728564911714 -1.3577194079385453 0 0 0
251 1 10.690017102888987 -4.92476392356415 0.4497805620473348 0 0 0
252 1 10.249005236440254 -3.160835181279406 2.2572805358456 0 0 0
253 1 12.869228202160741 -6.25018495900648 -3.165219461528181 0 0 0
254 1 12.431726685599415 -4.488496485190433 -1.35771947027495 0 0 0
255 1 11.99145146406137 -2.7263739583683453 0.4497805102684107 0 0 0
256 1 11.54991299407898 -0.9669289974407196 2.2572805142947865 0 0 0
257 1 14.17665356404325 -4.050738754369972 -3.1652194993822778 0 0 0
258 1 13.73686881775565 -2.2905529702754865 -1.3577194956127923 0 0 0
259 1 13.295922609412656 -0.5307501459154622 0.4497805032425329 0 0 0
260 1 12.851821913526152 1.2283081558596738 2.257280491483357 0 0 0
261 1 15.483404239030733 -1.8528317705150101 -3.1652195260034737 0 0 0
262 1 15.041581945371462 -0.09325514694370973 -1.3577195276111376 0 0 0
263 1 14.59727016713424 1.6662753974406126 0.4497804647416816 0 0 0
264 1 14.150626313350344 3.4243239849642233 2.2572804691296984 0 0 0
265 1 16.788643442387226 0.34456844894221383 -3.165219568585168 0 0 0
266 1 16.34533756130098 2.1029503737455304 -1.3577195702845846 0 0 0
267 1 15.901819729146297 3.8597659216824898 0.4497804535906185 0 0 0
268 1 15.459378939749712 5.613793597969755 2.2572804682645073 0 0 0
269 1 18.096338803909617 2.538836582621043 -3.1652195888029286 0 0 0
270 1 17.65557022495443 4.294188471784414 -1.3577195661751746 0 0 0
271 1 17.216332086495797 6.047463169840361 0.4497804407397195 0 0 0
272 1 16.77892429879492 7.798372677368123 2.257280470398983 0 0 0
273 1 19.410886485966316 4.728576419311215 -3.1652196128521477 0 0 0
274 1 18.973672007130304 6.481283100886758 -1.35771959708023 0 0 0
275 1 18.537898058941096 8.232475036611008 0.4497804528628023 0 0 0
276 1 18.10321539457378 9.98236867279209 2.257280489319395 0 0 0
277 1 20.730821165973026 6.91583152743558 -3.165219619417101 0 0 0
278 1 20.29565423308864 8.667415538534067 -1.3577195916019547 0 0 0
279 1 19.860923248821024 10.418401539500442 0.44978044877131806 0 0 0
280 1 19.425993963228535 12.169124826193125 2.257280471017816 0 0 0
281 1 22.05218044352702 9.10332745664091 -3.165219628582346 0 0 0
282 1 21.616976834549902 10.85518295228101 -1.3577196164814886 0 0 0
283 1 21.1813366687162 12.607022485362284 0.44978039508528306 0 0 0
284 1 20.7450004217596 14.358939347006695 2.25728042308368 0 0 0
285 1 23.371869260373373 11.292586385718375 -3.165219658944185 0 0 0
286 1 22.935595254559004 13.04518639645792 -1.3577196457357357 0 0 0
287 1 24.68911828260778 13.483607864947713 -3.165219688778447 0 0 0
288 1 7.559520580716622 14.781891603607127 0.44978072245219536 0 0 0
289 1 7.157999167783416 -13.284297009546874 2.257280722279165 0 0 0
290 1 9.333939947705446 -14.595016938508339 -1.3577193529277647 0 0 0
291 1 8.915227593111453 -12.84475776192638 0.4497806652762394 0 0 0
292 1 8.490571807265113 -11.08259523226378 2.257280663705767 0 0 0
293 1 11.095967502320676 -14.154812166639976 -3.165219372571148 0 0 0
294 1 10.667128992058963 -12.402252901392766 -1.357719390068815 0 0 0
295 1 10.234615649870307 -10.643558606255962 0.4497806118935919 0 0 0
296 1 9.803095335007924 -8.881545481092614 2.257280617156352 0 0 0
297 1 12.419156132265016 -11.959894368588202 -3.16521940148581 0 0 0
298 1 11.985258429663233 -10.204691876424427 -1.3577194123246878 0 0 0
299 1 11.553658419227844 -8.44756099995491 0.4497805857836406 0 0 0
300 1 11.123493479948166 -6.687728564533275 2.2572805925412545 0 0 0
301 1 13.737972674102593 -9.764677092657102 -3.1652194281868145 0 0 0
302 1 13.304007501252116 -8.00896755905003 -1.3577194410046711 0 0 0
303 1 12.869228202475298 -6.250184958226912 0.4497805384958808 0 0 0
304 1 12.43172668581957 -4.488496485286161 2.257280528650584 0 0 0
305 1 15.053559179645106 -7.568057696666412 -3.1652194811264387 0 0 0
306 1 14.6157172016663 -5.810320586017719 -1.357719491945555 0 0 0
307 1 14.176653563610046 -4.050738754678273 0.4497805006037063 0 0 0
308 1 13.736868817553614 -2.2905529700929304 2.2572805047498146 0 0 0
309 1 16.36369927337354 -5.369753757515305 -3.1652195101927183 0 0 0
310 1 15.923817659687344 -3.611768583976735 -1.3577195124746624 0 0 0
311 1 15.483404239183585 -1.8528317700732444 0.44978047397953486 0 0 0
312 1 15.041581945418045 -0.09325514713967564 2.257280471986284 0 0 0
313 1 17.672184855817378 -3.1719865913904126 -3.165219548054099 0 0 0
314 1 17.230927007672705 -1.4140361526476717 -1.3577195619128317 0 0 0
315 1 16.788643442120176 0.34456844886457105 0.4497804312753724 0 0 0
316 1 16.345337561425964 2.1029503736244894 2.257280429850776 0 0 0
317 1 18.979922086873287 -0.9750825980786519 -3.1652195835659866 0 0 0
318 1 18.538029783459734 0.7821133312636199 -1.357719602836773 0 0 0
319 1 18.096338803970767 2.53883658280205 0.4497804111908326 0 0 0
320 1 17.65557022496735 4.294188471842995 2.257280433628357 0 0 0
321 1 20.28970064099167 1.219278816440566 -3.165219629308431 0 0 0
322 1 19.849627457219327 2.974460466618895 -1.3577196179014017 0 0 0
323 1 19.410886485703912 4.728576419188114 0.44978038747457644 0 0 0
324 1 18.973672007175665 6.481283100968126 2.2572804029849 0 0 0
325 1 21.6043776524684 3.4101963933243464 -3.165219631215881 0 0 0
326 1 21.16695848347534 5.163439598614927 -1.357719626592518 0 0 0
327 1 20.730821165939602 6.9158315275315925 0.44978038047437185 0 0 0
328 1 20.29565423317848 8.667415538684564 2.2572804082387408 0 0 0
329 1 22.92317654690261 5.599002916998925 -3.1652196211084656 0 0 0
330 1 22.48741099788748 7.351317883716154 -1.3577196128901285 0 0 0
331 1 22.05218044349523 9.103327456561976 0.44978037113232366 0 0 0
332 1 21.6169768345776 10.855182952360002 2.257280383357056 0 0 0
333 1 24.243298435280238 7.787706037515315 -3.16521963680561 0 0 0
334 1 23.807669412288632 9.540103938391846 -1.3577196516199186 0 0 0
335 1 23.3718692603247 11.292586385666445 0.449780341000357 0 0 0
336 1 22.935595254800674 13.045186396382993 2.257280354210218 0 0 0
337 1 25.562360157905076 9.977564884092137 -3.1652196885551387 0 0 0
338 1 25.12596642667239 11.730487637422216 -1.3577196996140029 0 0 0
339 1 24.689118282452142 13.483607864976955 0.449780311282758 0 0 0
340 1 26.879507524153112 12.168777147808973 -3.165219742304588 0 0 0
341 1 26.442133203553766 13.922258219673887 -1.357719727201248 0 0 0
342 1 28.194816247196627 14.36107906334306 -3.165219781913615 0 0 0
343 1 9.333939948081508 -14.595016938912229 2.257280647498501 0 0 0
344 1 11.095967502625157 -14.154812167304316 0.44978062733072444 0 0 0
345 1 10.667128992594769 -12.402252901518633 2.2572806109174675 0 0 0
346 1 12.852777976991646 -13.712473207283322 -1.3577193817341686 0 0 0
347 1 12.419156132966378 -11.95989436868102 0.4497805985485931 0 0 0
348 1 11.985258430058252 -10.204691876118536 2.2572805874768562 0 0 0
349 1 14.608033904238667 -13.27021468063743 -3.165219398423264 0 0 0
350 1 14.172695780614205 -11.518258601922064 -1.3577194015366605 0 0 0
351 1 13.737972674212955 -9.76467709320505 0.4497805718427848 0 0 0
352 1 13.304007501065499 -8.008967558862643 2.257280559546371 0 0 0
353 1 15.926489763972072 -11.076717453310847 -3.165219440618184 0 0 0
354 1 15.490235305286049 -9.323406971397107 -1.3577194679972617 0 0 0
355 1 15.053559180121226 -7.568057696475917 0.44978051897397775 0 0 0
356 1 14.615717201700605 -5.810320586339531 2.257280508003102 0 0 0
357 1 17.24172135746464 -8.881570461323623 -3.165219478773981 0 0 0
358 1 16.803096097603046 -7.126454124804146 -1.357719483272093 0 0 0
359 1 16.363699273302686 -5.369753757768693 0.4497804898323041 0 0 0
360 1 15.92381765924057 -3.611768583799396 2.2572804879598287 0 0 0
361 1 18.553074661839872 -6.6849240195257575 -3.1652195180729628 0 0 0
362 1 18.11282498823381 -4.928967453314522 -1.3577195388720613 0 0 0
363 1 17.672184855941538 -3.1719865912499774 0.4497804519705998 0 0 0
364 1 17.230927007814003 -1.4140361528001613 2.2572804379428906 0 0 0
365 1 19.86271167366047 -4.488249822099862 -3.1652195769959577 0 0 0
366 1 19.421527549719343 -2.732001784722696 -1.3577195870417766 0 0 0
367 1 18.97992208678812 -0.9750825983663312 0.4497804165779143 0 0 0
368 1 18.538029783366937 0.7821133312456858 2.257280397310419 0 0 0
369 1 21.171991711948493 -2.2923223843620857 -3.1652196215632955 0 0 0
370 1 20.73066240633011 -0.5364804009736392 -1.3577196218883592 0 0 0
371 1 20.289700641192354 1.2192788164906556 0.44978037070034094 0 0 0
372 1 19.84962745734022 2.974460466380714 2.257280382022644 0 0 0
373 1 22.483019510525125 -0.09835024020486394 -3.16521963741081 0 0 0
374 1 22.04313127214259 1.656199551238215 -1.3577196385919061 0 0 0
375 1 21.604377652413987 3.410196393315273 0.44978036862935655 0 0 0
376 1 21.16695848363817 5.163439598751639 2.2572803735453806 0 0 0
377 1 23.797694072649918 2.093059042182306 -3.1652196303946982 0 0 0
378 1 23.359872141407763 3.8462672792011983 -1.357719630047062 0 0 0
379 1 22.923176546952064 5.599002917072637 0.4497803788813436 0 0 0
380 1 22.48741099778826 7.351317883848209 2.257280387090798 0 0 0
381 1 25.11557286998857 4.282780273314954 -3.1652196396313883 0 0 0
382 1 24.679144072843172 6.035305447657448 -1.3577196303842258 0 0 0
383 1 24.243298435333912 7.787706037510871 0.44978036313526887 0 0 0
384 1 23.80766941234053 9.540103938088818 2.2572803486336497 0 0 0
385 1 26.434663243366487 6.4722721193763935 -3.1652196807326085 0 0 0
386 1 25.99850283134883 8.224842131000427 -1.3577196764102226 0 0 0
387 1 25.56236015802699 9.977564883922147 0.44978031160296045 0 0 0
388 1 25.12596642645144 11.73048763726113 2.257280300265768 0 0 0
389 1 27.753115695292337 8.662548132548105 -3.1652197598957197 0 0 0
390 1 27.316452835102538 10.415537939504622 -1.357719761352862 0 0 0
391 1 26.879507524121735 12.168777147782746 0.4497802577443275 0 0 0
392 1 26.442133203269577 13.922258219860366 2.2572802728806507 0 0 0
393 1 29.070097000068046 10.853878045804086 -3.165219811470876 0 0 0
394 1 28.63265726127966 12.607351231529504 -1.357719786070317 0 0 0
395 1 28.194816247074698 14.361079063403553 0.44978021804641477 0 0 0
396 1 30.38554473302551 13.046110768201574 -3.165219832956731 0 0 0
397 1 12.852777976736306 -13.712473207153346 2.2572806180340907 0 0 0
398 1 15.042784083084129 14.789752462091505 -1.3577194179295775 0 0 0
399 1 14.6080339041674 -13.270214680418503 0.4497806016608173 0 0 0
400 1 14.172695780491253 -11.51825860176561 2.2572805979726165 0 0 0
401 1 16.798998026224226 -14.579441485859345 -3.1652194487103915 0 0 0
402 1 16.36282934595033 -12.828610479143467 -1.3577194313216834 0 0 0
403 1 15.926489763658878 -11.076717453217764 0.4497805594763324 0 0 0
404 1 15.490235305412071 -9.323406971202068 2.2572805320397005 0 0 0
405 1 18.116968552701252 -12.38747793272126 -3.165219499006972 0 0 0
406 1 17.679588844440744 -10.63512419048011 -1.357719475656335 0 0 0
407 1 17.24172135748104 -8.881570461050272 0.44978052103250193 0 0 0
408 1 16.803096097670306 -7.126454124952169 2.257280516524985 0 0 0
409 1 19.431888468359787 -10.193685198564378 -3.1652195193319046 0 0 0
410 1 18.99282378722819 -8.439825103057501 -1.3577195054894722 0 0 0
411 1 18.55307466174814 -6.6849240195736055 0.44978048204509213 0 0 0
412 1 18.112824988065555 -4.928967453203718 2.2572804612305823 0 0 0
413 1 20.743870833660566 -7.998507668973207 -3.165219542377786 0 0 0
414 1 20.303505661255542 -6.243738217265035 -1.3577195583287718 0 0 0
415 1 19.86271167358977 -4.488249821941389 0.44978042280043945 0 0 0
416 1 19.42152754996279 -2.732001785038518 2.2572804127839916 0 0 0
417 1 22.054339020206967 -5.803027752465669 -3.165219603100101 0 0 0
418 1 21.6132898549522 -4.0478908116112144 -1.3577196071632647 0 0 0
419 1 21.171991711934865 -2.292322384490271 0.44978037830667045 0 0 0
420 1 20.73066240625647 -0.5364804009227893 2.2572803780686925 0 0 0
421 1 23.36464666259323 -3.608097206363519 -3.1652196459987003 0 0 0
422 1 22.923664468172348 -1.8531967625739494 -1.3577196473206252 0 0 0
423 1 22.483019510596222 -0.09835024020679661 0.4497803625896227 0 0 0
424 1 22.043131272167898 1.6561995512637981 2.257280361287456 0 0 0
425 1 24.67643986366471 -1.4146405896046623 -3.165219660699482 0 0 0
426 1 24.236620184056832 0.3393961145136686 -1.357719645665416 0 0 0
427 1 23.797694072664115 2.0930590421037376 0.4497803697139947 0 0 0
428 1 23.359872141244708 3.846267279489341 2.2572803699668635 0 0 0
429 1 25.991028013539506 0.7769163431350492 -3.1652196685267757 0 0 0
430 1 25.55283717903575 2.5300117994217555 -1.3577196526954156 0 0 0
431 1 25.11557286992864 4.282780273507237 0.44978036034348706 0 0 0
432 1 24.67914407306783 6.0353054478396455 2.2572803696904518 0 0 0
433 1 27.308143896958597 2.9671597681616806 -3.165219689384941 0 0 0
434 1 26.871129448618746 4.719754490259804 -1.357719678659139 0 0 0