LAMMPS data file via write_data, version 29 Aug 2024, timestep = 953, units = metal

3656 atoms
2 atom types

-100.1 100.1 xlo xhi
-14.90504265 14.90504265 ylo yhi
-3.615 3.615 zlo zhi
0 0 0 xy xz yz

Masses

1 63.55
2 63.55

Atoms # atomic

1 1 0.6644219592143088 13.393001284098906 -3.16025711139635 0 0 0
2 1 0.28972224560635595 7.734924824741972 -3.160257110898698 0 0 0
3 1 1.355226082300561 9.893890657320652 -3.1602571106253277 0 0 0
4 1 1.0007377161448687 11.516563008363617 -1.3527571108710905 0 0 0
5 1 0.664421959217222 13.393001284097542 0.45474288861201256 0 0 0
6 1 2.77481024220576 12.02818541147368 -3.1602571102505834 0 0 0
7 1 2.360216113362057 13.779121006348602 -1.3527571105532064 0 0 0
8 1 4.0686196400491355 14.252268901467323 -3.160257109880697 0 0 0
9 1 1.0007377161652755 4.064041683421591 -3.1602571108792805 0 0 0
10 1 0.6644219592628531 5.94047995919029 -1.3527571114183863 0 0 0
11 1 0.28972224551638703 7.734924824716918 0.45474288910032895 0 0 0
12 1 2.36021611336632 6.326599681416068 -3.160257110557432 0 0 0
13 1 1.8936065228289323 8.176118227046766 -1.352757110573813 0 0 0
14 1 1.3552260823080076 9.893890657368003 0.45474288937371354 0 0 0
15 1 1.0007377161418276 11.516563008368523 2.2622428891127244 0 0 0
16 1 3.6170026039693823 8.563405772498308 -3.160257109997144 0 0 0
17 1 3.208367876348106 10.307655213620889 -1.3527571100336868 0 0 0
18 1 2.7748102421960965 12.028185411468458 0.454742889748393 0 0 0
19 1 2.3602161133620285 13.779121006346726 2.2622428894458877 0 0 0
20 1 4.967175647564275 10.735600431108066 -3.160257109480071 0 0 0
21 1 4.532637896096887 12.488184574989416 -1.3527571096531503 0 0 0
22 1 4.068619640050358 14.252268901470329 0.4547428901187836 0 0 0
23 1 6.270616188959934 12.936019578045768 -3.1602571090479246 0 0 0
24 1 5.821171542249985 14.691149356151199 -1.3527571092065633 0 0 0
25 1 0.6644219592455869 -1.5120413658085745 -3.160257111377068 0 0 0
26 1 0.2897222456407036 0.28240349975334844 -1.3527571108880405 0 0 0
27 1 1.8936065228071897 0.7235969020589454 -3.1602571105308974 0 0 0
28 1 1.3552260822851565 2.441369332375091 -1.3527571106192193 0 0 0
29 1 1.000737716191253 4.064041683399749 0.4547428891251361 0 0 0
30 1 0.6644219592583198 5.940479959188151 2.262242888602873 0 0 0
31 1 3.208367876328211 2.8551338886416833 -3.160257110032871 0 0 0
32 1 2.774810242194164 4.575664086512495 -1.3527571102524114 0 0 0
33 1 2.36021611338586 6.326599681402326 0.4547428894408988 0 0 0
34 1 1.893606522829657 8.176118227047615 2.2622428894702495 0 0 0
35 1 4.532637896095281 5.0356632500003276 -3.1602571096567424 0 0 0
36 1 4.068619640068121 6.799747576501437 -1.35275710988991 0 0 0
37 1 3.6170026039820726 8.563405772499264 0.4547428900040517 0 0 0
38 1 3.208367876349527 10.307655213619013 2.26224288996433 0 0 0
39 1 5.821171542266171 7.238628031151292 -3.1602571092166896 0 0 0
40 1 5.3889842072879475 8.98546416010774 -1.3527571093594937 0 0 0
41 1 4.9671756475647015 10.73560043110369 0.45474289052004413 0 0 0
42 1 4.53263789609737 12.488184574989424 2.262242890350686 0 0 0
43 1 7.150395373552442 9.422057728101327 -3.1602571087320173 0 0 0
44 1 6.715862012893211 11.175730976042319 -1.3527571088920043 0 0 0
45 1 6.270616188961853 12.936019578046222 0.4547428909522982 0 0 0
46 1 5.821171542249942 14.691149356150488 2.262242890793725 0 0 0
47 1 8.46289295122753 11.617770406779107 -3.160257108279536 0 0 0
48 1 8.020453199833156 13.373352633745695 -1.3527571084518641 0 0 0
49 1 9.776097833226089 13.809627245917762 -3.160257107891166 0 0 0
50 1 0.28972224560240534 -7.170117825317086 -3.16025711088302 0 0 0
51 1 1.3552260822380333 -5.011151992681967 -3.160257110612833 0 0 0
52 1 1.0007377161211508 -3.3884796415932126 -1.3527571108687928 0 0 0
53 1 0.6644219592353835 -1.5120413658100311 0.4547428886081163 0 0 0
54 1 0.2897222456011548 0.2824034997468754 2.2622428891106896 0 0 0
55 1 2.774810242151574 -2.8768572385261386 -3.1602571102410124 0 0 0
56 1 2.3602161133427444 -1.1259216436022808 -1.3527571105491065 0 0 0
57 1 1.8936065228070333 0.7235969020607929 0.45474288945295765 0 0 0
58 1 1.3552260822889508 2.441369332389991 2.2622428893708584 0 0 0
59 1 4.068619640024039 -0.6527737485188307 -3.160257109877504 0 0 0
60 1 3.6170026039424386 1.1108844474951578 -1.352757109990919 0 0 0
61 1 3.20836787631805 2.855133888648302 0.4547428899676987 0 0 0
62 1 2.774810242192956 4.5756640865098515 2.262242889738624 0 0 0
63 1 5.388984207244178 1.5329428350905925 -3.160257109354135 0 0 0
64 1 4.967175647538852 3.2830791061027167 -1.352757109483009 0 0 0
65 1 4.532637896086044 5.035663250004978 0.45474289034278426 0 0 0
66 1 4.068619640069187 6.799747576502595 2.262242890105037 0 0 0
67 1 6.715862012865713 3.723209651020708 -3.160257108893446 0 0 0
68 1 6.270616188952474 5.483498253033579 -1.3527571090576853 0 0 0
69 1 5.821171542263187 7.238628031154578 0.4547428907833389 0 0 0
70 1 5.38898420728745 8.98546416010768 2.262242890635841 0 0 0
71 1 8.0204531998274 5.920831308711291 -3.1602571084594993 0 0 0
72 1 7.582969150915105 7.672566646721725 -1.3527571086199646 0 0 0
73 1 7.150395373550111 9.422057728101608 0.454742891267857 0 0 0
74 1 6.715862012893211 11.17573097604282 2.2622428911081456 0 0 0
75 1 9.340232717053624 8.109189653146652 -3.1602571080272805 0 0 0
76 1 8.90367115322664 9.862234378907791 -1.3527571081398484 0 0 0
77 1 8.46289295122719 11.617770406780133 0.4547428917203252 0 0 0
78 1 8.020453199832644 13.373352633745744 2.262242891547421 0 0 0
79 1 10.654804190273708 10.302150899016342 -3.160257107624439 0 0 0
80 1 10.21458060951862 12.056542763142053 -1.3527571077572604 0 0 0
81 1 9.77609783322545 13.809627245917829 0.4547428921086849 0 0 0
82 1 11.968700693912936 12.494244536719842 -3.1602571073074746 0 0 0
83 1 11.53123424301208 14.247148633333657 -1.3527571073989997 0 0 0
84 1 13.28494379413938 14.685569467439661 -3.1602571069635537 0 0 0
85 1 1.000737716175479 -10.841000966721783 -3.160257110868962 0 0 0
86 1 0.6644219592631231 -8.964562690872114 -1.3527571113788428 0 0 0
87 1 0.28972224556603976 -7.170117825322246 0.4547428891162174 0 0 0
88 1 2.3602161133193533 -8.578442968667296 -3.16025711054346 0 0 0
89 1 1.893606522769801 -6.72892442300564 -1.3527571105325438 0 0 0
90 1 1.355226082238275 -5.011151992687852 0.4547428893921128 0 0 0
91 1 1.0007377161355748 -3.388479641608031 2.2622428891379456 0 0 0
92 1 3.617002603903586 -6.341636877545627 -3.1602571099795034 0 0 0
93 1 3.2083678762857772 -4.59738743640572 -1.352757110018014 0 0 0
94 1 2.7748102421570593 -2.87685723852638 0.45474288976309507 0 0 0
95 1 2.3602161133527204 -1.1259216436071675 2.262242889454526 0 0 0
96 1 4.967175647485931 -4.169442218930531 -3.160257109463411 0 0 0
97 1 4.532637896042232 -2.416858075033037 -1.352757109638538 0 0 0
98 1 4.0686196400261565 -0.6527737485215983 0.45474289012514013 0 0 0
99 1 3.6170026039459486 1.110884447495307 2.2622428900129328 0 0 0
100 1 6.27061618890184 -1.9690230719886355 -3.160257109038044 0 0 0
101 1 5.8211715422137615 -0.21389329387033307 -1.352757109203611 0 0 0
102 1 5.388984207248399 1.532942835088674 0.4547428906463605 0 0 0
103 1 4.96717564753834 3.2830791061022193 2.2622428905210534 0 0 0
104 1 7.582969150871023 0.2200453216993452 -3.160257108608107 0 0 0
105 1 7.150395373512339 1.9695364030759759 -1.3527571087265153 0 0 0
106 1 6.715862012868584 3.7232096510182 0.4547428911064711 0 0 0
107 1 6.270616188952559 5.483498253033643 2.262242890945456 0 0 0
108 1 8.903671153200875 2.4097130538770077 -3.1602571081372917 0 0 0
109 1 8.46289295120937 4.165249081742688 -1.3527571082821688 0 0 0
110 1 8.020453199829817 5.920831308710616 0.4547428915405336 0 0 0
111 1 7.582969150915233 7.67256664672149 2.262242891380868 0 0 0
112 1 10.214580609513774 4.60402143809768 -3.16025710776041 0 0 0
113 1 9.776097833228292 6.35710592086876 -1.3527571078975325 0 0 0
114 1 9.340232717054164 8.109189653145867 0.4547428919727427 0 0 0
115 1 8.903671153226753 9.862234378907766 2.262242891860893 0 0 0
116 1 11.531234243023306 6.7946273082792015 -3.1602571074046133 0 0 0
117 1 11.093849638157153 8.547874965217444 -1.352757107526645 0 0 0
118 1 10.654804190274177 10.302150899015848 0.45474289237569776 0 0 0
119 1 10.214580609518691 12.056542763142092 2.2622428922426905 0 0 0
120 1 12.846432163601065 8.986824492430705 -3.160257107109798 0 0 0
121 1 12.40732413742478 10.740781837995057 -1.352757107183681 0 0 0
122 1 11.968700693913362 12.494244536719682 0.4547428926925874 0 0 0
123 1 11.531234243012364 14.247148633333621 2.2622428926009284 0 0 0
124 1 14.16090608325959 11.178911544614197 -3.160257106805854 0 0 0
125 1 13.722852899824929 12.93221233116813 -1.3527571068718685 0 0 0
126 1 13.284943794139622 14.685569467440024 0.4547428930364266 0 0 0
127 1 15.47646930767884 13.370545493774157 -3.1602571064994573 0 0 0
128 1 0.28972224554428294 -14.62263915036911 -1.3527571108889485 0 0 0
129 1 1.8936065227997005 -14.181445748024053 -3.1602571105356163 0 0 0
130 1 1.3552260822639681 -12.463673317694568 -1.3527571106135847 0 0 0
131 1 1.0007377161772837 -10.841000966719237 0.4547428891320714 0 0 0
132 1 0.6644219592554776 -8.964562690874358 2.26224288861855 0 0 0
133 1 3.2083678762819545 -12.049908761426494 -3.1602571100249053 0 0 0
134 1 2.7748102421386562 -10.329378563577954 -1.3527571102423341 0 0 0
135 1 2.3602161133224513 -8.57844296866891 0.4547428894514927 0 0 0
136 1 1.8936065227704688 -6.728924423001919 2.262242889469224 0 0 0
137 1 4.532637896046992 -9.869379400050995 -3.1602571096429317 0 0 0
138 1 4.068619640004528 -8.105295073552178 -1.3527571098736486 0 0 0
139 1 3.6170026039000334 -6.341636877546632 0.4547428900203135 0 0 0
140 1 3.2083678762791976 -4.59738743640378 2.262242889980611 0 0 0
141 1 5.821171542186846 -7.666414618875716 -3.1602571091993834 0 0 0
142 1 5.3889842072010765 -5.919578489930107 -1.3527571093451451 0 0 0
143 1 4.967175647484751 -4.169442218926855 0.45474289053424455 0 0 0
144 1 4.532637896038921 -2.41685807503044 2.262242890357233 0 0 0
145 1 7.150395373474737 -5.482984921922062 -3.160257108714969 0 0 0
146 1 6.715862012819102 -3.7293116739928394 -1.3527571088779053 0 0 0
147 1 6.270616188900149 -1.9690230719891133 0.4547428909613092 0 0 0
148 1 5.82117154221271 -0.21389329386969003 2.262242890795724 0 0 0
149 1 8.462892951170673 -3.287272243251378 -3.160257108266636 0 0 0
150 1 8.020453199783873 -1.5316900162995015 -1.352757108445964 0 0 0
151 1 7.582969150869914 0.22004532170124236 0.4547428913914947 0 0 0
152 1 7.150395373512055 1.9695364030761144 2.262242891270429 0 0 0
153 1 9.776097833198179 -1.0954154041307813 -3.1602571078855015 0 0 0
154 1 9.340232717022843 0.6566683281293564 -1.3527571080193381 0 0 0
155 1 8.903671153198744 2.4097130538777183 0.45474289186268574 0 0 0
156 1 8.462892951209454 4.165249081742784 2.2622428917162813 0 0 0
157 1 11.093849638145969 1.095353640207465 -3.160257107521111 0 0 0
158 1 10.6548041902646 2.849629573986343 -1.352757107624509 0 0 0
159 1 10.214580609513135 4.604021438098409 0.45474289223939435 0 0 0
160 1 9.776097833228206 6.357105920868564 2.262242892101488 0 0 0
161 1 12.407324137435495 3.2882605129720996 -3.160257107183339 0 0 0
162 1 11.968700693922969 5.041723211677676 -1.3527571073099303 0 0 0
163 1 11.53123424302241 6.794627308279649 0.45474289259553 0 0 0
164 1 11.093849638156954 8.547874965217366 2.2622428924736573 0 0 0
165 1 13.722852899848675 5.479691006138834 -3.1602571068734475 0 0 0
166 1 13.284943794156646 7.23304814239428 -1.3527571069677153 0 0 0
167 1 12.846432163600909 8.986824492430985 0.45474289289024694 0 0 0
168 1 12.407324137424965 10.740781837995153 2.262242892815862 0 0 0
169 1 15.03810070571879 7.671633428396339 -3.160257106593557 0 0 0
170 1 14.599443959074492 9.425351857969313 -1.3527571067227673 0 0 0
171 1 14.160906083259718 11.178911544613987 0.4547428931940728 0 0 0
172 1 13.722852899825 12.932212331168172 2.2622428931281946 0 0 0
173 1 16.3528940634517 9.863643210568009 -3.1602571063349965 0 0 0
174 1 15.914628040011522 11.617096705459273 -1.3527571064216473 0 0 0
175 1 15.476469307678911 13.370545493774243 0.4547428935006832 0 0 0
176 1 17.66816680416207 12.05542500218027 -3.1602571060106297 0 0 0
177 1 17.229824857268483 13.808981932477954 -1.3527571061115176 0 0 0
178 1 18.983188577312347 14.247377379667045 -3.160257105724103 0 0 0
179 1 0.28972224552792625 -14.622639150378125 2.2622428891111195 0 0 0
180 1 1.8936065228016048 -14.18144574802608 0.45474288945972996 0 0 0
181 1 1.3552260822638402 -12.46367331769007 2.262242889385435 0 0 0
182 1 3.6170026039365126 -13.794158202555831 -1.3527571099846913 0 0 0
183 1 3.2083678762838446 -12.049908761427973 0.45474288997693524 0 0 0
184 1 2.7748102421403473 -10.329378563581878 2.2622428897600146 0 0 0
185 1 5.38898420725647 -13.372099814916169 -3.160257109349701 0 0 0
186 1 4.967175647518204 -11.621963543929189 -1.3527571094696622 0 0 0
187 1 4.532637896048342 -9.869379400050255 0.45474289035780097 0 0 0
188 1 4.068619640006034 -8.105295073551959 2.2622428901264597 0 0 0
189 1 6.715862012842891 -11.181832998969941 -3.160257108881932 0 0 0
190 1 6.270616188898302 -9.421544396979048 -1.352757109038927 0 0 0
191 1 5.821171542188111 -7.666414618877755 0.4547428908020095 0 0 0
192 1 5.388984207202327 -5.919578489931888 2.2622428906577654 0 0 0
193 1 8.0204531997843 -8.984211341263352 -3.1602571084427247 0 0 0
194 1 7.582969150850289 -7.232476003279266 -1.3527571086009014 0 0 0
195 1 7.1503953734770676 -5.482984921922135 0.4547428912856479 0 0 0
196 1 6.715862012820679 -3.7293116739934558 2.2622428911227423 0 0 0
197 1 9.340232717006757 -6.795852996829696 -3.1602571080086848 0 0 0
198 1 8.903671153170691 -5.042808271098318 -1.3527571081221583 0 0 0
199 1 8.462892951170957 -3.2872722432528274 0.45474289173403276 0 0 0
200 1 8.020453199784455 -1.5316900162998959 2.262242891556285 0 0 0
201 1 10.654804190247106 -4.602891750972095 -3.160257107608594 0 0 0
202 1 10.214580609489772 -2.8484998868801714 -1.3527571077457559 0 0 0
203 1 9.7760978331996 -1.0954154041307493 0.4547428921146497 0 0 0
204 1 9.340232717022914 0.6566683281293422 2.262242891981314 0 0 0
205 1 11.968700693916503 -2.4107981132896654 -3.1602571072972996 0 0 0
206 1 11.531234243013586 -0.6578940167083598 -1.3527571073947648 0 0 0
207 1 11.093849638146835 1.095353640206989 0.4547428924788974 0 0 0
208 1 10.654804190264443 2.8496295739862685 2.2622428923768005 0 0 0
209 1 13.284943794168925 -0.21947318258545856 -3.1602571069612098 0 0 0
210 1 12.846432163612846 1.53430316743035 -1.3527571071065845 0 0 0
211 1 12.407324137436646 3.288260512971741 0.4547428928167991 0 0 0
212 1 11.968700693923012 5.04172321167791 2.262242892690364 0 0 0
213 1 14.599443959105159 1.9728305329775804 -3.160257106719933 0 0 0
214 1 14.16090608328902 3.7263902196035428 -1.3527571068048092 0 0 0
215 1 13.722852899848917 5.479691006138454 0.45474289312653754 0 0 0
216 1 13.28494379415659 7.233048142394528 2.262242893032889 0 0 0
217 1 15.914628040053373 4.16457538046455 -3.160257106419653 0 0 0
218 1 15.476469307713273 5.918024168766189 -1.3527571064995163 0 0 0
219 1 15.03810070571943 7.6716334283962 0.45474289340645446 0 0 0
220 1 14.599443959074392 9.425351857969487 2.2622428932771665 0 0 0
221 1 17.229824857302688 6.356460607492947 -3.160257106111442 0 0 0
222 1 16.79135343686191 8.110075882189625 -1.3527571062239991 0 0 0
223 1 16.35289406345173 9.863643210568105 0.4547428936648239 0 0 0
224 1 15.91462804001145 11.617096705459131 2.262242893578561 0 0 0
225 1 18.5447790541771 8.548415499706193 -3.160257105821773 0 0 0
226 1 18.106442645050038 10.301927405090764 -1.3527571059344465 0 0 0
227 1 17.6681668041618 12.05542500218059 0.45474289398936885 0 0 0
228 1 17.22982485726817 13.808981932477716 2.262242893888503 0 0 0
229 1 19.859933477360386 10.740263865434935 -3.1602571055076787 0 0 0
230 1 19.421588654314263 12.493806596503495 -1.3527571056161245 0 0 0
231 1 18.983188577312063 14.247377379666935 0.45474289427573694 0 0 0
232 1 21.17500079220889 12.932178600705354 -3.160257105230465 0 0 0
233 1 20.736617431916414 14.685730191819824 -1.3527571053276393 0 0 0
234 1 3.6170026039368395 -13.794158202555199 2.262242890013912 0 0 0
235 1 5.388984207254936 -13.372099814916423 0.45474289064999907 0 0 0
236 1 4.967175647516939 -11.621963543928507 2.2622428905297767 0 0 0
237 1 7.582969150901121 -14.684997328252795 -3.1602571086093403 0 0 0
238 1 7.150395373517057 -12.935506246890748 -1.3527571087222414 0 0 0
239 1 6.715862012842194 -11.181832998968321 0.4547428911175322 0 0 0
240 1 6.270616188897662 -9.421544396978504 2.262242890959664 0 0 0
241 1 8.903671153201074 -12.495329596060019 -3.1602571081303 0 0 0
242 1 8.462892951188806 -10.739793568207954 -1.3527571082699912 0 0 0
243 1 8.020453199783034 -8.984211341263338 0.4547428915568564 0 0 0
244 1 7.582969150849507 -7.232476003278786 2.262242891398827 0 0 0
245 1 10.214580609494377 -10.301021211829854 -3.160257107747147 0 0 0
246 1 9.776097833194441 -8.54793672907827 -1.3527571078818037 0 0 0
247 1 9.340232717006089 -6.795852996829149 0.4547428919906387 0 0 0
248 1 8.90367115317018 -5.042808271097856 2.262242891876175 0 0 0
249 1 11.531234243006566 -8.110415341652402 -3.1602571073877024 0 0 0
250 1 11.093849638135282 -6.357167684738963 -1.3527571075093123 0 0 0
251 1 10.654804190246395 -4.602891750972065 0.45474289239082605 0 0 0
252 1 10.214580609489417 -2.8484998868800737 2.2622428922533775 0 0 0
253 1 12.846432163604732 -5.91821815751768 -3.160257107093604 0 0 0
254 1 12.40732413743018 -4.164260811980496 -1.3527571071703604 0 0 0
255 1 11.968700693916759 -2.410798113289383 0.45474289270257773 0 0 0
256 1 11.531234243013472 -0.6578940167082745 2.2622428926037865 0 0 0
257 1 14.16090608329344 -3.7261311053541952 -3.160257106793553 0 0 0
258 1 13.722852899859078 -1.972830318826313 -1.3527571068642674 0 0 0
259 1 13.2849437941681 -0.21947318258534843 0.45474289303869664 0 0 0
260 1 12.84643216361269 1.5343031674302612 2.2622428928932834 0 0 0
261 1 15.476469307734206 -1.534497156205953 -3.1602571064934533 0 0 0
262 1 15.038100705746487 0.2191121034178174 -1.3527571065893262 0 0 0
263 1 14.599443959104761 1.972830532977893 0.45474289328004824 0 0 0
264 1 14.160906083288708 3.726390219603422 2.2622428931946743 0 0 0
265 1 16.791353436899428 0.6575545572073889 -3.160257106221186 0 0 0
266 1 16.35289406349473 2.411121885582949 -1.3527571063320896 0 0 0
267 1 15.914628040053017 4.1645753804647025 0.45474289358057424 0 0 0
268 1 15.476469307713273 5.918024168766186 2.2622428935006673 0 0 0
269 1 18.106442645090738 2.8494060801075793 -3.1602571059308984 0 0 0
270 1 17.66816680420297 4.602903677199604 -1.352757106008145 0 0 0
271 1 17.229824857302845 6.356460607493025 0.4547428938887306 0 0 0
272 1 16.791353436862067 8.110075882189635 2.262242893775685 0 0 0
273 1 19.4215886543482 5.0412852715327805 -3.1602571056133084 0 0 0
274 1 18.98318857734209 6.794856054702111 -1.3527571057249113 0 0 0
275 1 18.5447790541769 8.548415499705852 0.45474289417829183 0 0 0
276 1 18.106442645050265 10.301927405090899 2.2622428940657673 0 0 0
277 1 20.73661743193435 7.23320886686445 -3.1602571053289523 0 0 0
278 1 20.298260236798498 8.986741572226107 -1.3527571054140106 0 0 0
279 1 19.859933477360187 10.74026386543518 0.45474289449256555 0 0 0
280 1 19.421588654314263 12.493806596503275 2.262242894383762 0 0 0
281 1 22.051726010300683 9.42508566079057 -3.160257105021352 0 0 0
282 1 21.613374642838295 11.178625812363583 -1.3527571051277463 0 0 0
283 1 21.175000792208962 12.932178600704871 0.4547428947695414 0 0 0
284 1 20.736617431916656 14.685730191819827 2.2622428946724487 0 0 0
285 1 23.366806844450522 11.616986977057648 -3.16025710477813 0 0 0
286 1 22.928436060325666 13.370533718940278 -1.3527571048503255 0 0 0
287 1 24.681884120424087 13.80888341192321 -3.160257104554939 0 0 0
288 1 7.582969150901505 -14.684997328253884 0.45474289139090235 0 0 0
289 1 7.150395373518052 -12.93550624689106 2.2622428912782477 0 0 0
290 1 9.34023271704065 -14.248374321808184 -1.3527571080182066 0 0 0
291 1 8.903671153201898 -12.495329596059566 0.4547428918701612 0 0 0
292 1 8.462892951189232 -10.739793568208507 2.26224289173034 0 0 0
293 1 11.093849638144789 -13.809689009727105 -3.1602571075186323 0 0 0
294 1 10.654804190257238 -12.055413075936828 -1.3527571076145553 0 0 0
295 1 10.21458060949493 -10.301021211830314 0.45474289225322234 0 0 0
296 1 9.776097833195038 -8.547936729078476 2.2622428921194677 0 0 0
297 1 12.407324137421199 -11.616782136955207 -3.1602571071734817 0 0 0
298 1 11.968700693910009 -9.863319438244417 -1.352757107295357 0 0 0
299 1 11.531234243007077 -8.11041534165252 0.4547428926126321 0 0 0
300 1 11.093849638135481 -6.357167684739201 2.2622428924909754 0 0 0
301 1 13.722852899838244 -9.42535164379554 -3.160257106858922 0 0 0
302 1 13.28494379415541 -7.671994507538899 -1.3527571069509536 0 0 0
303 1 12.84643216360513 -5.918218157517851 0.45474289290666275 0 0 0
304 1 12.407324137430251 -4.164260811980606 2.262242892830716 0 0 0
305 1 15.038100705730386 -7.233409221553466 -3.160257106577722 0 0 0
306 1 14.599443959101137 -5.479690791983096 -1.3527571067077542 0 0 0
307 1 14.160906083294392 -3.726131105354499 0.45474289320669026 0 0 0
308 1 13.722852899859078 -1.9728303188263414 2.262242893136223 0 0 0
309 1 16.35289406349078 -5.041399439399958 -3.1602571063213056 0 0 0
310 1 15.914628040064045 -3.2879459445092483 -1.3527571064107407 0 0 0
311 1 15.476469307734078 -1.5344971562064789 0.4547428935065091 0 0 0
312 1 15.038100705746771 0.21911210341795773 2.262242893411367 0 0 0
313 1 17.66816680421755 -2.849617647794318 -3.160257106001482 0 0 0
314 1 17.229824857330385 -1.0960607174925308 -1.3527571061063723 0 0 0
315 1 16.791353436899627 0.6575545572071047 0.45474289377904364 0 0 0
316 1 16.3528940634948 2.411121885582803 2.262242893667599 0 0 0
317 1 18.98318857736581 -0.6576652702994839 -3.1602571057210618 0 0 0
318 1 18.544779054211304 1.095894174716049 -1.3527571058184318 0 0 0
319 1 18.106442645090695 2.8494060801075722 0.4547428940687943 0 0 0
320 1 17.66816680420297 4.6029036771996505 2.262242893992347 0 0 0
321 1 20.298260236824305 1.5342202472281503 -3.1602571054101483 0 0 0
322 1 19.85993347739179 3.2877425404516263 -1.3527571055045922 0 0 0
323 1 19.421588654348184 5.0412852715329475 0.45474289438673393 0 0 0
324 1 18.983188577342133 6.7948560547019365 2.262242894275055 0 0 0
325 1 21.61337464285063 3.7261044873761033 -3.16025710512447 0 0 0
326 1 21.175000792225077 5.479657275736281 -1.352757105229513 0 0 0
327 1 20.736617431934178 7.233208866864411 0.454742894670824 0 0 0
328 1 20.298260236798413 8.986741572226238 2.262242894586213 0 0 0
329 1 22.928436060326774 5.918012393967354 -3.1602571048508157 0 0 0
330 1 22.490073966922452 7.671551985280702 -1.352757104928882 0 0 0
331 1 22.051726010300484 9.425085660790822 0.4547428949785975 0 0 0
332 1 21.613374642838266 11.178625812363608 2.262242894872178 0 0 0
333 1 24.24352776179289 8.109900742067692 -3.1602571046513392 0 0 0
334 1 23.805171663973994 9.86344116159752 -1.352757104713204 0 0 0
335 1 23.366806844450323 11.616986977058053 0.4547428952217174 0 0 0
336 1 22.92843606032578 13.370533718940719 2.2622428951500684 0 0 0
337 1 25.55861180826581 10.301797603441925 -3.1602571044274623 0 0 0
338 1 25.12024667213754 12.055341785784508 -1.3527571044725708 0 0 0
339 1 24.681884120424115 13.808883411923711 0.45474289544487684 0 0 0
340 1 26.873692078027986 12.49369389019589 -3.160257104187895 0 0 0
341 1 26.435332547489466 14.247234614802393 -1.352757104273274 0 0 0
342 1 28.188778126485857 14.685587783128396 -3.1602571039679495 0 0 0
343 1 9.340232717040806 -14.248374321807985 2.2622428919817192 0 0 0
344 1 11.093849638144462 -13.809689009726812 0.4547428924811345 0 0 0
345 1 10.654804190257195 -12.055413075936604 2.2622428923849642 0 0 0
346 1 12.846432163591771 -13.370739482516642 -1.3527571071026518 0 0 0
347 1 12.407324137421 -11.616782136955086 0.4547428928258847 0 0 0
348 1 11.968700693909852 -9.863319438244384 2.2622428927044953 0 0 0
349 1 14.599443959068509 -12.932212116994384 -3.1602571067149445 0 0 0
350 1 14.160906083265814 -11.178652430344922 -1.352757106794832 0 0 0
351 1 13.722852899838358 -9.425351643795494 0.4547428931410446 0 0 0
352 1 13.28494379415514 -7.671994507538865 2.2622428930486804 0 0 0
353 1 15.91462804002461 -10.740467269516685 -3.16025710640874 0 0 0
354 1 15.476469307705116 -8.987018481195015 -1.352757106485437 0 0 0
355 1 15.038100705730173 -7.233409221553655 0.4547428934219889 0 0 0
356 1 14.599443959101137 -5.479690791983053 2.2622428932921834 0 0 0
357 1 17.229824857293693 -8.548582042503888 -3.1602571060979576 0 0 0
358 1 16.791353436878808 -6.794966767788836 -1.3527571062097223 0 0 0
359 1 16.352894063490652 -5.041399439399674 0.45474289367882603 0 0 0
360 1 15.914628040064017 -3.28794594450917 2.2622428935890806 0 0 0
361 1 18.544779054191807 -6.356627150306101 -3.1602571058086077 0 0 0
362 1 18.106442645089047 -4.603115244899682 -1.3527571059218424 0 0 0
363 1 17.66816680421711 -2.849617647794485 0.45474289399825224 0 0 0
364 1 17.229824857330627 -1.0960607174923904 2.2622428938932866 0 0 0
365 1 19.859933477385923 -4.1647787845796564 -3.160257105496837 0 0 0
366 1 19.421588654357095 -2.4112360534828756 -1.3527571056085457 0 0 0
367 1 18.983188577365425 -0.657665270299308 0.45474289427908177 0 0 0
368 1 18.544779054211432 1.0958941747158821 2.2622428941815715 0 0 0
369 1 21.175000792227365 -1.9728640492960707 -3.1602571052243897 0 0 0
370 1 20.73661743195042 -0.2193124581505188 -1.3527571053251297 0 0 0
371 1 20.298260236824063 1.534220247228328 0.4547428945896984 0 0 0
372 1 19.859933477392033 3.2877425404517044 2.262242894495815 0 0 0
373 1 22.49007396692069 0.21903066025552675 -3.1602571049232018 0 0 0
374 1 22.051726010306425 1.9725643357844564 -1.3527571050179088 0 0 0
375 1 21.613374642850275 3.726104487376608 0.45474289487564995 0 0 0
376 1 21.175000792224992 5.479657275736022 2.262242894770451 0 0 0
377 1 23.805171663963108 2.4109198365852347 -3.1602571047093364 0 0 0
378 1 23.36680684444576 4.164465652065063 -1.3527571047768667 0 0 0
379 1 22.92843606032676 5.918012393966853 0.4547428951491541 0 0 0
380 1 22.49007396692238 7.671551985280777 2.2622428950710693 0 0 0
381 1 25.120246672113865 4.60282046078215 -3.160257104472685 0 0 0
382 1 24.681884120408483 6.356362086937766 -1.3527571045579274 0 0 0
383 1 24.24352776179289 8.109900742068072 0.4547428953491077 0 0 0
384 1 23.805171663974065 9.8634411615971 2.2622428952868328 0 0 0
385 1 26.435332547465507 6.794713289802557 -3.160257104278022 0 0 0
386 1 25.99697378411591 8.548254348755348 -1.3527571043550255 0 0 0
387 1 25.558611808265837 10.30179760344196 0.45474289557265163 0 0 0
388 1 25.12024667213778 12.055341785784309 2.2622428955274922 0 0 0
389 1 27.75041691878762 8.986608830421764 -3.160257104027428 0 0 0
390 1 27.312054189263833 10.740151785077517 -1.352757104141177 0 0 0
391 1 26.873692078027943 12.493693890196218 0.45474289581214017 0 0 0
392 1 26.43533254748951 14.247234614802023 2.2622428957265863 0 0 0
393 1 29.065498884936687 11.178504717382493 -3.16025710385666 0 0 0
394 1 28.627138223586115 12.932046262853076 -1.352757103886304 0 0 0
395 1 28.18877812648597 14.685587783128588 0.45474289603199974 0 0 0
396 1 30.380583390925068 13.370399394728954 -3.1602571036360305 0 0 0
397 1 12.84643216359187 -13.370739482516688 2.2622428928973655 0 0 0
398 1 15.038100705697715 -14.685930546579614 -1.3527571065896389 0 0 0
399 1 14.599443959068225 -12.932212116994235 0.45474289328521916 0 0 0
400 1 14.160906083266056 -11.178652430344995 2.2622428932054848 0 0 0
401 1 16.791353436841575 -14.247488092814633 -3.160257106220447 0 0 0
402 1 16.352894063448744 -12.493920764421476 -1.3527571063260881 0 0 0
403 1 15.914628040024638 -10.7404672695168 0.45474289359127007 0 0 0
404 1 15.476469307705202 -8.98701848119519 2.262242893514592 0 0 0
405 1 18.10644264504232 -12.055636569927392 -3.1602571059247246 0 0 0
406 1 17.66816680417074 -10.302138972818472 -1.3527571059970795 0 0 0
407 1 17.229824857293607 -8.548582042504348 0.4547428939019887 0 0 0
408 1 16.791353436878893 -6.794966767789058 2.2622428937904675 0 0 0
409 1 19.42158865431655 -9.863757378518839 -3.1602571056028714 0 0 0
410 1 18.983188577331333 -8.110186595332685 -1.3527571057118977 0 0 0
411 1 18.544779054192006 -6.356627150306233 0.454742894191468 0 0 0
412 1 18.106442645088933 -4.603115244899881 2.2622428940775254 0 0 0
413 1 20.736617431919726 -7.671833783200668 -3.1602571053170774 0 0 0
414 1 20.298260236803458 -5.9183010778166665 -1.3527571054015608 0 0 0
415 1 19.859933477385965 -4.164778784580067 0.4547428945029901 0 0 0
416 1 19.42158865435721 -2.4112360534827584 2.2622428943915405 0 0 0
417 1 22.05172601028893 -5.4799569892730755 -3.1602571050102433 0 0 0
418 1 21.6133746428403 -3.726416837671513 -1.3527571051181626 0 0 0
419 1 21.175000792227635 -1.9728640492958895 0.45474289477558966 0 0 0
420 1 20.736617431950336 -0.2193124581506094 2.262242894675003 0 0 0
421 1 23.366806844425582 -3.2880556729908132 -3.1602571047702868 0 0 0
422 1 22.928436060315335 -1.5345089310756155 -1.3527571048448535 0 0 0
423 1 22.490073966920733 0.21903066025534024 0.45474289507646565 0 0 0
424 1 22.051726010306425 1.9725643357845986 2.262242894982007 0 0 0
425 1 24.681884120384865 -1.0961592381065302 -3.160257104551456 0 0 0
426 1 24.243527761775823 0.6573794170388361 -1.3527571046460782 0 0 0
427 1 23.80517166396342 2.410919836585302 0.45474289529051287 0 0 0
428 1 23.366806844445406 4.16446565206496 2.262242895222869 0 0 0
429 1 25.996973784080566 1.0957330237241774 -3.160257104349906 0 0 0
430 1 25.55861180823554 2.8492762784236714 -1.35275710442484 0 0 0
431 1 25.120246672114064 4.602820460782189 0.4547428955272161 0 0 0
432 1 24.681884120408284 6.356362086938207 2.262242895441542 0 0 0
433 1 27.31205418922383 3.287630460055423 -3.1602571041403102 0 0 0
434 1 26.87369207799493 5.041172565184324 -1.352757104191035 0 0 0
435 1 26.435332547465748 6.794713289802695 0.4547428957219482 0 0 0