# LAMMPS data file Sigma = 17, inclination = 0.000000
#LAMMPS data file
3656 atoms
2 atom types
-100.1000000000 100.1000000000 xlo xhi
-14.9050426500 14.9050426500 ylo yhi
-3.6150000000 3.6150000000 zlo zhi
0.0 0.0 0.0 xy xz yz

Atoms # atomic

1 1 0.4383827906 13.1415339078 -1.8075000000
2 2 0.0000001993 7.8909122310 -1.8075000000
3 1 1.3151491689 9.5373850497 -1.8075000000
4 1 0.8767659797 11.3639732769 0.0000000000
5 1 0.4383827906 13.1415339078 1.8075000000
6 1 2.6302985370 11.7632719402 -1.8075000000
7 1 2.1919153479 13.5483813239 0.0000000000
8 1 3.9454479052 13.9683140649 -1.8075000000
9 2 1.3151495674 5.7684330668 -1.8075000000
10 2 0.8767663783 3.9818421409 0.0000000000
11 2 0.0000001993 7.8909122310 1.8075000000
12 1 2.1919155472 5.8275614204 -1.8075000000
13 1 1.7535323580 7.6429706293 0.0000000000
14 1 1.3151491689 9.5373850497 1.8075000000
15 1 0.8767659797 11.3639732769 3.6150000000
16 1 3.5070649153 8.1360906334 -1.8075000000
17 1 3.0686817262 9.9560028034 0.0000000000
18 1 2.6302985370 11.7632719402 1.8075000000
19 1 2.1919153479 13.5483813239 3.6150000000
20 1 4.8222142835 10.3960534716 -1.8075000000
21 1 4.3838310943 12.1868470431 0.0000000000
22 1 3.9454479052 13.9683140649 1.8075000000
23 1 6.1373636516 12.6210160405 -1.8075000000
24 1 5.6989804625 14.3972813188 0.0000000000
25 2 0.8767661790 -3.4530461642 -1.8075000000
26 2 0.0000000000 0.4383899452 0.0000000000
27 1 1.7535325573 0.0639114467 -1.8075000000
28 2 0.4383831891 2.2082988594 -1.8075000000
29 2 1.3151495674 5.7684330668 1.8075000000
30 2 0.8767663783 3.9818421409 3.6150000000
31 1 3.0686819254 2.3039806970 -1.8075000000
32 1 2.6302987363 4.0577757445 0.0000000000
33 1 2.1919155472 5.8275614204 1.8075000000
34 1 1.7535323580 7.6429706293 3.6150000000
35 1 4.3838312936 4.5569663559 -1.8075000000
36 1 3.9454481044 6.3342321801 0.0000000000
37 1 3.5070649153 8.1360906334 1.8075000000
38 1 3.0686817262 9.9560028034 3.6150000000
39 1 5.6989806617 6.8149618618 -1.8075000000
40 1 5.2605974726 8.6019569861 0.0000000000
41 1 4.8222142835 10.3960534716 1.8075000000
42 1 4.3838310943 12.1868470431 3.6150000000
43 1 7.0141300299 9.0593860266 -1.8075000000
44 1 6.5757468407 10.8405841024 0.0000000000
45 1 6.1373636516 12.6210160405 1.8075000000
46 1 5.6989804625 14.3972813188 3.6150000000
47 1 8.3292793980 11.2861613983 -1.8075000000
48 1 7.8908962089 13.0598370866 0.0000000000
49 1 9.6444287662 13.5007700815 -1.8075000000
50 1 0.0000001993 -7.4525233933 -1.8075000000
51 2 0.4383829899 -5.1943503351 0.0000000000
52 2 1.3151493681 -1.6961457352 0.0000000000
53 2 0.8767661790 -3.4530461642 1.8075000000
54 2 0.0000000000 0.4383899452 3.6150000000
55 1 2.6302989356 -3.3868987416 -1.8075000000
56 1 2.1919157464 -1.6681668513 0.0000000000
57 1 1.7535325573 0.0639114467 1.8075000000
58 2 0.4383831891 2.2082988594 1.8075000000
59 1 3.9454483037 -1.1755118229 -1.8075000000
60 1 3.5070651146 0.5597076350 0.0000000000
61 1 3.0686819254 2.3039806970 1.8075000000
62 1 2.6302987363 4.0577757445 3.6150000000
63 1 5.2605976719 1.0467829650 -1.8075000000
64 1 4.8222144827 2.7962535711 0.0000000000
65 1 4.3838312936 4.5569663559 1.8075000000
66 1 3.9454481044 6.3342321801 3.6150000000
67 1 6.5757470400 3.2778214607 -1.8075000000
68 1 6.1373638509 5.0404549456 0.0000000000
69 1 5.6989806617 6.8149618618 1.8075000000
70 1 5.2605974726 8.6019569861 3.6150000000
71 1 7.8908964082 5.5119372189 -1.8075000000
72 1 7.4525132190 7.2820904704 0.0000000000
73 1 7.0141300299 9.0593860266 1.8075000000
74 1 6.5757468407 10.8405841024 3.6150000000
75 1 9.2060457763 7.7416171403 -1.8075000000
76 1 8.7676625872 9.5125942491 0.0000000000
77 1 8.3292793980 11.2861613983 1.8075000000
78 1 7.8908962089 13.0598370866 3.6150000000
79 1 10.5211951445 9.9631079225 -1.8075000000
80 1 10.0828119553 11.7317222538 0.0000000000
81 1 9.6444287662 13.5007700815 1.8075000000
82 1 11.8363445126 12.1768858434 -1.8075000000
83 1 11.3979613235 13.9426365986 0.0000000000
84 1 13.1514938808 14.3848532232 -1.8075000000
85 1 0.8767665776 -10.9811294078 -1.8075000000
86 1 0.4383833884 -9.2260417347 0.0000000000
87 1 0.0000001993 -7.4525233933 1.8075000000
88 1 2.1919159457 -8.8610908195 -1.8075000000
89 1 1.7535327566 -7.1868341254 0.0000000000
90 2 0.4383829899 -5.1943503351 3.6150000000
91 2 1.3151493681 -1.6961457352 3.6150000000
92 1 3.5070653139 -6.7648228306 -1.8075000000
93 1 3.0686821247 -5.0837720762 0.0000000000
94 1 2.6302989356 -3.3868987416 1.8075000000
95 1 2.1919157464 -1.6681668513 3.6150000000
96 1 4.8222146820 -4.6136134913 -1.8075000000
97 1 4.3838314929 -2.9001236364 0.0000000000
98 1 3.9454483037 -1.1755118229 1.8075000000
99 1 3.5070651146 0.5597076350 3.6150000000
100 1 6.1373640502 -2.4255394600 -1.8075000000
101 1 5.6989808610 -0.6935365677 0.0000000000
102 1 5.2605976719 1.0467829650 1.8075000000
103 1 4.8222144827 2.7962535711 3.6150000000
104 1 7.4525134183 -0.2199808621 -1.8075000000
105 1 7.0141302292 1.5249130676 0.0000000000
106 1 6.5757470400 3.2778214607 1.8075000000
107 1 6.1373638509 5.0404549456 3.6150000000
108 1 8.7676627865 1.9950976404 -1.8075000000
109 1 8.3292795973 3.7497882831 0.0000000000
110 1 7.8908964082 5.5119372189 1.8075000000
111 1 7.4525132190 7.2820904704 3.6150000000
112 1 10.0828121546 4.2142443281 -1.8075000000
113 1 9.6444289655 5.9751928591 0.0000000000
114 1 9.2060457763 7.7416171403 1.8075000000
115 1 8.7676625872 9.5125942491 3.6150000000
116 1 11.3979615227 6.4328199684 -1.8075000000
117 1 10.9595783336 8.1963948699 0.0000000000
118 1 10.5211951445 9.9631079225 1.8075000000
119 1 10.0828119553 11.7317222538 3.6150000000
120 1 12.7131108909 8.6479410585 -1.8075000000
121 1 12.2747277018 10.4116767149 0.0000000000
122 1 11.8363445126 12.1768858434 1.8075000000
123 1 11.3979613235 13.9426365986 3.6150000000
124 1 14.0282602590 10.8587499578 -1.8075000000
125 1 13.5898770699 12.6215233881 0.0000000000
126 1 13.1514938808 14.3848532232 1.8075000000
127 1 15.3434096272 13.0656113328 -1.8075000000
128 1 0.0000003986 14.9050396772 0.0000000000
129 1 1.7535329558 -14.4867050382 -1.8075000000
130 1 1.3151497667 -12.7341494842 0.0000000000
131 1 0.8767665776 -10.9811294078 1.8075000000
132 1 0.4383833884 -9.2260417347 3.6150000000
133 1 3.0686823240 -12.3236552967 -1.8075000000
134 1 2.6302991349 -10.5848143947 0.0000000000
135 1 2.1919159457 -8.8610908195 1.8075000000
136 1 1.7535327566 -7.1868341254 3.6150000000
137 1 4.3838316921 -10.1763912370 -1.8075000000
138 1 3.9454485030 -8.4593025189 0.0000000000
139 1 3.5070653139 -6.7648228306 1.8075000000
140 1 3.0686821247 -5.0837720762 3.6150000000
141 1 5.6989810603 -8.0327708188 -1.8075000000
142 1 5.2605978711 -6.3211658414 0.0000000000
143 1 4.8222146820 -4.6136134913 1.8075000000
144 1 4.3838314929 -2.9001236364 3.6150000000
145 1 7.0141304284 -5.8723331770 -1.8075000000
146 1 6.5757472393 -4.1506682942 0.0000000000
147 1 6.1373640502 -2.4255394600 1.8075000000
148 1 5.6989808610 -0.6935365677 3.6150000000
149 1 8.3292797966 -3.6914711521 -1.8075000000
150 1 7.8908966074 -1.9582248035 0.0000000000
151 1 7.4525134183 -0.2199808621 1.8075000000
152 1 7.0141302292 1.5249130676 3.6150000000
153 1 9.6444291647 -1.4960446796 -1.8075000000
154 1 9.2060459756 0.2468700494 0.0000000000
155 1 8.7676627865 1.9950976404 1.8075000000
156 1 8.3292795973 3.7497882831 3.6150000000
157 1 10.9595785329 0.7083695481 -1.8075000000
158 1 10.5211953437 2.4588031163 0.0000000000
159 1 10.0828121546 4.2142443281 1.8075000000
160 1 9.6444289655 5.9751928591 3.6150000000
161 1 12.2747279010 2.9174551947 -1.8075000000
162 1 11.8363447119 4.6731100833 0.0000000000
163 1 11.3979615227 6.4328199684 1.8075000000
164 1 10.9595783336 8.1963948699 3.6150000000
165 1 13.5898772692 5.1278514624 -1.8075000000
166 1 13.1514940800 6.8864885549 0.0000000000
167 1 12.7131108909 8.6479410585 1.8075000000
168 1 12.2747277018 10.4116767149 3.6150000000
169 1 14.9050266373 7.3372845616 -1.8075000000
170 1 14.4666434482 9.0971544947 0.0000000000
171 1 14.0282602590 10.8587499578 1.8075000000
172 1 13.5898770699 12.6215233881 3.6150000000
173 1 16.2201760055 9.5446135326 -1.8075000000
174 1 15.7817928163 11.3046322376 0.0000000000
175 1 15.3434096272 13.0656113328 1.8075000000
176 1 17.5353253736 11.7495456118 -1.8075000000
177 1 17.0969421845 13.5091716367 0.0000000000
178 1 18.8504747418 13.9522448882 -1.8075000000
179 1 0.0000003986 14.9050396772 3.6150000000
180 1 1.7535329558 -14.4867050382 1.8075000000
181 1 1.3151497667 -12.7341494842 3.6150000000
182 1 3.5070655131 -14.0684180256 0.0000000000
183 1 3.0686823240 -12.3236552967 1.8075000000
184 1 2.6302991349 -10.5848143947 3.6150000000
185 1 5.2605980704 -13.6474780825 -1.8075000000
186 1 4.8222148813 -11.9079808344 0.0000000000
187 1 4.3838316921 -10.1763912370 1.8075000000
188 1 3.9454485030 -8.4593025189 3.6150000000
189 1 6.5757474386 -11.4849289497 -1.8075000000
190 1 6.1373642494 -9.7542102011 0.0000000000
191 1 5.6989810603 -8.0327708188 1.8075000000
192 1 5.2605978711 -6.3211658414 3.6150000000
193 1 7.8908968067 -9.3225265090 -1.8075000000
194 1 7.4525136176 -7.5951726578 0.0000000000
195 1 7.0141304284 -5.8723331770 1.8075000000
196 1 6.5757472393 -4.1506682942 3.6150000000
197 1 9.2060461749 -7.1525830664 -1.8075000000
198 1 8.7676629857 -5.4220444837 0.0000000000
199 1 8.3292797966 -3.6914711521 1.8075000000
200 1 7.8908966074 -1.9582248035 3.6150000000
201 1 10.5211955430 -4.9716845246 -1.8075000000
202 1 10.0828123539 -3.2350185083 0.0000000000
203 1 9.6444291647 -1.4960446796 1.8075000000
204 1 9.2060459756 0.2468700494 3.6150000000
205 1 11.8363449112 -2.7808899053 -1.8075000000
206 1 11.3979617220 -1.0378572331 0.0000000000
207 1 10.9595785329 0.7083695481 1.8075000000
208 1 10.5211953437 2.4588031163 3.6150000000
209 1 13.1514942793 -0.5828899517 -1.8075000000
210 1 12.7131110902 1.1656272248 0.0000000000
211 1 12.2747279010 2.9174551947 1.8075000000
212 1 11.8363447119 4.6731100833 3.6150000000
213 1 14.4666436475 1.6195425332 -1.8075000000
214 1 14.0282604583 3.3722336158 0.0000000000
215 1 13.5898772692 5.1278514624 1.8075000000
216 1 13.1514940800 6.8864885549 3.6150000000
217 1 15.7817930156 3.8240469551 -1.8075000000
218 1 15.3434098265 5.5795234073 0.0000000000
219 1 14.9050266373 7.3372845616 1.8075000000
220 1 14.4666434482 9.0971544947 3.6150000000
221 1 17.0969423838 6.0288758529 -1.8075000000
222 1 16.6585591946 7.7859358660 0.0000000000
223 1 16.2201760055 9.5446135326 1.8075000000
224 1 15.7817928163 11.3046322376 3.6150000000
225 1 18.4120917519 8.2329461895 -1.8075000000
226 1 17.9737085628 9.9907134770 0.0000000000
227 1 17.5353253736 11.7495456118 1.8075000000
228 1 17.0969421845 13.5091716367 3.6150000000
229 1 19.7272411201 10.4357366434 -1.8075000000
230 1 19.2888579309 12.1936591068 0.0000000000
231 1 18.8504747418 13.9522448882 1.8075000000
232 1 21.0423904882 12.6371048768 -1.8075000000
233 1 20.6040072991 14.3948775805 0.0000000000
234 1 3.5070655131 -14.0684180256 3.6150000000
235 1 5.2605980704 -13.6474780825 1.8075000000
236 1 4.8222148813 -11.9079808344 3.6150000000
237 1 7.4525138169 14.8458530839 -1.8075000000
238 1 7.0141306277 -13.2223411321 0.0000000000
239 1 6.5757474386 -11.4849289497 1.8075000000
240 1 6.1373642494 -9.7542102011 3.6150000000
241 1 8.7676631850 -12.7928548054 -1.8075000000
242 1 8.3292799959 -11.0552985642 0.0000000000
243 1 7.8908968067 -9.3225265090 1.8075000000
244 1 7.4525136176 -7.5951726578 3.6150000000
245 1 10.0828125532 -10.6208339551 -1.8075000000
246 1 9.6444293640 -8.8851736420 0.0000000000
247 1 9.2060461749 -7.1525830664 1.8075000000
248 1 8.7676629857 -5.4220444837 3.6150000000
249 1 11.3979619213 -8.4445926010 -1.8075000000
250 1 10.9595787322 -6.7077397727 0.0000000000
251 1 10.5211955430 -4.9716845246 1.8075000000
252 1 10.0828123539 -3.2350185083 3.6150000000
253 1 12.7131112895 -6.2620017216 -1.8075000000
254 1 12.2747281003 -4.5218832647 0.0000000000
255 1 11.8363449112 -2.7808899053 1.8075000000
256 1 11.3979617220 -1.0378572331 3.6150000000
257 1 14.0282606576 -4.0729280779 -1.8075000000
258 1 13.5898774685 -2.3288037601 0.0000000000
259 1 13.1514942793 -0.5828899517 1.8075000000
260 1 12.7131110902 1.1656272248 3.6150000000
261 1 15.3434100257 -1.8785089476 -1.8075000000
262 1 14.9050268366 -0.1305443214 0.0000000000
263 1 14.4666436475 1.6195425332 1.8075000000
264 1 14.0282604583 3.3722336158 3.6150000000
265 1 16.6585593939 0.3196640658 -1.8075000000
266 1 16.2201762048 2.0708270829 0.0000000000
267 1 15.7817930156 3.8240469551 1.8075000000
268 1 15.3434098265 5.5795234073 3.6150000000
269 1 17.9737087620 2.5200336684 -1.8075000000
270 1 17.5353255729 4.2735747957 0.0000000000
271 1 17.0969423838 6.0288758529 1.8075000000
272 1 16.6585591946 7.7859358660 3.6150000000
273 1 19.2888581302 4.7213215745 -1.8075000000
274 1 18.8504749411 6.4764453751 0.0000000000
275 1 18.4120917519 8.2329461895 1.8075000000
276 1 17.9737085628 9.9907134770 3.6150000000
277 1 20.6040074983 6.9226212459 -1.8075000000
278 1 20.1656243092 8.6786744079 0.0000000000
279 1 19.7272411201 10.4357366434 1.8075000000
280 1 19.2888579309 12.1936591068 3.6150000000
281 1 21.9191568665 9.1233827781 -1.8075000000
282 1 21.4807736773 10.8798913598 0.0000000000
283 1 21.0423904882 12.6371048768 1.8075000000
284 1 20.6040072991 14.3948775805 3.6150000000
285 1 23.2343062346 11.3233352873 -1.8075000000
286 1 22.7959230455 13.0799881202 0.0000000000
287 1 24.5494556028 13.5223936876 -1.8075000000
288 1 7.4525138169 14.8458530839 1.8075000000
289 1 7.0141306277 -13.2223411321 3.6150000000
290 1 9.2060463742 -14.5341361486 0.0000000000
291 1 8.7676631850 -12.7928548054 1.8075000000
292 1 8.3292799959 -11.0552985642 3.6150000000
293 1 10.9595789314 -14.1013145294 -1.8075000000
294 1 10.5211957423 -12.3596706490 0.0000000000
295 1 10.0828125532 -10.6208339551 1.8075000000
296 1 9.6444293640 -8.8851736420 3.6150000000
297 1 12.2747282996 -11.9236615758 -1.8075000000
298 1 11.8363451104 -10.1831182558 0.0000000000
299 1 11.3979619213 -8.4445926010 1.8075000000
300 1 10.9595787322 -6.7077397727 3.6150000000
301 1 13.5898776677 -9.7433238250 -1.8075000000
302 1 13.1514944786 -8.0022456931 0.0000000000
303 1 12.7131112895 -6.2620017216 1.8075000000
304 1 12.2747281003 -4.5218832647 3.6150000000
305 1 14.9050270359 -7.5590092186 -1.8075000000
306 1 14.4666438467 -5.8160862152 0.0000000000
307 1 14.0282606576 -4.0729280779 1.8075000000
308 1 13.5898774685 -2.3288037601 3.6150000000
309 1 16.2201764040 -5.3703763205 -1.8075000000
310 1 15.7817932149 -3.6249229183 0.0000000000
311 1 15.3434100257 -1.8785089476 1.8075000000
312 1 14.9050268366 -0.1305443214 3.6150000000
313 1 17.5353257722 -3.1778698051 -1.8075000000
314 1 17.0969425830 -1.4297678015 0.0000000000
315 1 16.6585593939 0.3196640658 1.8075000000
316 1 16.2201762048 2.0708270829 3.6150000000
317 1 18.8504751403 -0.9823605256 -1.8075000000
318 1 18.4120919512 0.7681286856 0.0000000000
319 1 17.9737087620 2.5200336684 1.8075000000
320 1 17.5353255729 4.2735747957 3.6150000000
321 1 20.1656245085 1.2151671167 -1.8075000000
322 1 19.7272413193 2.9675878510 0.0000000000
323 1 19.2888581302 4.7213215745 1.8075000000
324 1 18.8504749411 6.4764453751 3.6150000000
325 1 21.4807738766 3.4138167237 -1.8075000000
326 1 21.0423906875 5.1676629781 0.0000000000
327 1 20.6040074983 6.9226212459 1.8075000000
328 1 20.1656243092 8.6786744079 3.6150000000
329 1 22.7959232448 5.6128812723 -1.8075000000
330 1 22.3575400556 7.3676905139 0.0000000000
331 1 21.9191568665 9.1233827781 1.8075000000
332 1 21.4807736773 10.8798913598 3.6150000000
333 1 24.1110726129 7.8118683891 -1.8075000000
334 1 23.6726894238 9.5672672165 0.0000000000
335 1 23.2343062346 11.3233352873 1.8075000000
336 1 22.7959230455 13.0799881202 3.6150000000
337 1 25.4262219811 10.0104769121 -1.8075000000
338 1 24.9878387919 11.7661901758 0.0000000000
339 1 24.5494556028 13.5223936876 1.8075000000
340 1 26.7413713492 12.2085516254 -1.8075000000
341 1 26.3029881601 13.9643907355 0.0000000000
342 1 28.0565207174 14.4060361296 -1.8075000000
343 1 9.2060463742 -14.5341361486 3.6150000000
344 1 10.9595789314 -14.1013145294 1.8075000000
345 1 10.5211957423 -12.3596706490 3.6150000000
346 1 12.7131114887 -13.6662006880 0.0000000000
347 1 12.2747282996 -11.9236615758 1.8075000000
348 1 11.8363451104 -10.1831182558 3.6150000000
349 1 14.4666440460 -13.2292907083 -1.8075000000
350 1 14.0282608569 -11.4856275671 0.0000000000
351 1 13.5898776677 -9.7433238250 1.8075000000
352 1 13.1514944786 -8.0022456931 3.6150000000
353 1 15.7817934142 -11.0462067547 -1.8075000000
354 1 15.3434102250 -9.3022600867 0.0000000000
355 1 14.9050270359 -7.5590092186 1.8075000000
356 1 14.4666438467 -5.8160862152 3.6150000000
357 1 17.0969427823 -8.8604704914 -1.8075000000
358 1 16.6585595932 -7.1154109981 0.0000000000
359 1 16.2201764040 -5.3703763205 1.8075000000
360 1 15.7817932149 -3.6249229183 3.6150000000
361 1 18.4120921505 -6.6717668520 -1.8075000000
362 1 17.9737089613 -4.9250679757 0.0000000000
363 1 17.5353257722 -3.1778698051 1.8075000000
364 1 17.0969425830 -1.4297678015 3.6150000000
365 1 19.7272415186 -4.4802489969 -1.8075000000
366 1 19.2888583295 -2.7317166313 0.0000000000
367 1 18.8504751403 -0.9823605256 1.8075000000
368 1 18.4120919512 0.7681286856 3.6150000000
369 1 21.0423908868 -2.2863860119 -1.8075000000
370 1 20.6040076976 -0.5360907221 0.0000000000
371 1 20.1656245085 1.2151671167 1.8075000000
372 1 19.7272413193 2.9675878510 3.6150000000
373 1 22.3575402549 -0.0907877024 -1.8075000000
374 1 21.9191570658 1.6610342281 0.0000000000
375 1 21.4807738766 3.4138167237 1.8075000000
376 1 21.0423906875 5.1676629781 3.6150000000
377 1 23.6726896231 2.1059340612 -1.8075000000
378 1 23.2343064339 3.8589725552 0.0000000000
379 1 22.7959232448 5.6128812723 1.8075000000
380 1 22.3575400556 7.3676905139 3.6150000000
381 1 24.9878389912 4.3032511653 -1.8075000000
382 1 24.5494558021 6.0571909328 0.0000000000
383 1 24.1110726129 7.8118683891 1.8075000000
384 1 23.6726894238 9.5672672165 3.6150000000
385 1 26.3029883594 6.5007569172 -1.8075000000
386 1 25.8646051702 8.2553188122 0.0000000000
387 1 25.4262219811 10.0104769121 1.8075000000
388 1 24.9878387919 11.7661901758 3.6150000000
389 1 27.6181377275 8.6981685427 -1.8075000000
390 1 27.1797545384 10.4531273945 0.0000000000
391 1 26.7413713492 12.2085516254 1.8075000000
392 1 26.3029881601 13.9643907355 3.6150000000
393 1 28.9332870957 10.8953094650 -1.8075000000
394 1 28.4949039065 12.6504957723 0.0000000000
395 1 28.0565207174 14.4060361296 1.8075000000
396 1 30.2484364638 13.0920840010 -1.8075000000
397 1 12.7131114887 -13.6662006880 3.6150000000
398 1 14.9050272352 14.8358053645 0.0000000000
399 1 14.4666440460 -13.2292907083 1.8075000000
400 1 14.0282608569 -11.4856275671 3.6150000000
401 1 16.6585597925 -14.5368218737 -1.8075000000
402 1 16.2201766033 -12.7910409241 0.0000000000
403 1 15.7817934142 -11.0462067547 1.8075000000
404 1 15.3434102250 -9.3022600867 3.6150000000
405 1 17.9737091606 -12.3518304783 -1.8075000000
406 1 17.5353259715 -10.6058763260 0.0000000000
407 1 17.0969427823 -8.8604704914 1.8075000000
408 1 16.6585595932 -7.1154109981 3.6150000000
409 1 19.2888585288 -10.1649808244 -1.8075000000
410 1 18.8504753396 -8.4183141332 0.0000000000
411 1 18.4120921505 -6.6717668520 1.8075000000
412 1 17.9737089613 -4.9250679757 3.6150000000
413 1 20.6040078969 -7.9760245654 -1.8075000000
414 1 20.1656247078 -6.2282610573 0.0000000000
415 1 19.7272415186 -4.4802489969 1.8075000000
416 1 19.2888583295 -2.7317166313 3.6150000000
417 1 21.9191572650 -5.7849955390 -1.8075000000
418 1 21.4807740759 -4.0359447668 0.0000000000
419 1 21.0423908868 -2.2863860119 1.8075000000
420 1 20.6040076976 -0.5360907221 3.6150000000
421 1 23.2343066332 -3.5921456099 -1.8075000000
422 1 22.7959234441 -1.8417922304 0.0000000000
423 1 22.3575402549 -0.0907877024 1.8075000000
424 1 21.9191570658 1.6610342281 3.6150000000
425 1 24.5494560013 -1.3978506417 -1.8075000000
426 1 24.1110728122 0.3536940816 0.0000000000
427 1 23.6726896231 2.1059340612 1.8075000000
428 1 23.2343064339 3.8589725552 3.6150000000
429 1 25.8646053695 0.7974772807 -1.8075000000
430 1 25.4262221804 2.5500300744 0.0000000000
431 1 24.9878389912 4.3032511653 1.8075000000
432 1 24.5494558021 6.0571909328 3.6150000000
433 1 27.1797547376 2.9934536113 -1.8075000000
434 1 26.7413715485 4.7468057983 0.0000000000
435 1 26.3029883594 6.5007569172 1.8075000000
436 1 25.8646051702 8.2553188122 3.6150000000
437 1 28.4949041058 5.1897574576 -1.8075000000
438 1 28.0565209166 6.9437076540 0.0000000000
439 1 27.6181377275 8.6981685427 1.8075000000
440 1 27.1797545384 10.4531273945 3.6150000000
441 1 29.8100534739 7.3861443195 -1.8075000000
442 1 29.3716702848 9.1405169492 0.0000000000
443 1 28.9332870957 10.8953094650 1.8075000000
444 1 28.4949039065 12.6504957723 3.6150000000
445 1 31.1252028421 9.5824429174 -1.8075000000
446 1 30.6868196529 11.3370954372 0.0000000000
447 1 30.2484364638 13.0920840010 1.8075000000
448 1 32.4403522102 11.7785435868 -1.8075000000
449 1 32.0019690211 13.5333663409 0.0000000000
450 1 33.7555015784 13.9743839631 -1.8075000000
451 1 14.9050272352 14.8358053645 3.6150000000
452 1 16.6585597925 -14.5368218737 1.8075000000
453 1 16.2201766033 -12.7910409241 3.6150000000
454 1 18.4120923497 -14.0984354130 0.0000000000
455 1 17.9737091606 -12.3518304783 1.8075000000
456 1 17.5353259715 -10.6058763260 3.6150000000
457 1 20.1656249070 -13.6593607151 -1.8075000000
458 1 19.7272417179 -11.9119571890 0.0000000000
459 1 19.2888585288 -10.1649808244 1.8075000000
460 1 18.8504753396 -8.4183141332 3.6150000000
461 1 21.4807742752 -11.4716469804 -1.8075000000
462 1 21.0423910860 -9.7237633455 0.0000000000
463 1 20.6040078969 -7.9760245654 1.8075000000
464 1 20.1656247078 -6.2282610573 3.6150000000
465 1 22.7959236433 -9.2823921411 -1.8075000000
466 1 22.3575404542 -7.5337504513 0.0000000000
467 1 21.9191572650 -5.7849955390 1.8075000000
468 1 21.4807740759 -4.0359447668 3.6150000000
469 1 24.1110730115 -7.0915833738 -1.8075000000
470 1 23.6726898223 -5.3420207825 0.0000000000
471 1 23.2343066332 -3.5921456099 1.8075000000
472 1 22.7959234441 -1.8417922304 3.6150000000
473 1 25.4262223796 -4.8993555469 -1.8075000000
474 1 24.9878391905 -3.1488233347 0.0000000000
475 1 24.5494560013 -1.3978506417 1.8075000000
476 1 24.1110728122 0.3536940816 3.6150000000
477 1 26.7413717478 -2.7059411398 -1.8075000000
478 1 26.3029885586 -0.9544824317 0.0000000000
479 1 25.8646053695 0.7974772807 1.8075000000
480 1 25.4262221804 2.5500300744 3.6150000000
481 1 28.0565211159 -0.5116166353 -1.8075000000
482 1 27.6181379268 1.2406645803 0.0000000000
483 1 27.1797547376 2.9934536113 1.8075000000
484 1 26.7413715485 4.7468057983 3.6150000000
485 1 29.3716704841 1.6833417142 -1.8075000000
486 1 28.9332872949 3.4363106988 0.0000000000
487 1 28.4949041058 5.1897574576 1.8075000000
488 1 28.0565209166 6.9437076540 3.6150000000
489 1 30.6868198522 3.8786874100 -1.8075000000
490 1 30.2484366631 5.6322025723 0.0000000000
491 1 29.8100534739 7.3861443195 1.8075000000
492 1 29.3716702848 9.1405169492 3.6150000000
493 1 32.0019692204 6.0742186931 -1.8075000000
494 1 31.5635860312 7.8281475194 0.0000000000
495 1 31.1252028421 9.5824429174 1.8075000000
496 1 30.6868196529 11.3370954372 3.6150000000
497 1 33.3171185885 8.2697821505 -1.8075000000
498 1 32.8787353994 10.0240098006 0.0000000000
499 1 32.4403522102 11.7785435868 1.8075000000
500 1 32.0019690211 13.5333663409 3.6150000000
501 1 34.6322679567 10.4652690198 -1.8075000000
502 1 34.1938847675 12.2197013800 0.0000000000
503 1 33.7555015784 13.9743839631 1.8075000000
504 1 35.9474173248 12.6606078539 -1.8075000000
505 1 35.5090341357 14.4151710459 0.0000000000
506 1 18.4120923497 -14.0984354130 3.6150000000
507 1 20.1656249070 -13.6593607151 1.8075000000
508 1 19.7272417179 -11.9119571890 3.6150000000
509 1 22.3575406535 14.8418126999 -1.8075000000
510 1 21.9191574643 -13.2197927075 0.0000000000
511 1 21.4807742752 -11.4716469804 1.8075000000
512 1 21.0423910860 -9.7237633455 3.6150000000
513 1 23.6726900216 -12.7798845937 -1.8075000000
514 1 23.2343068325 -11.0310670919 0.0000000000
515 1 22.7959236433 -9.2823921411 1.8075000000
516 1 22.3575404542 -7.5337504513 3.6150000000
517 1 24.9878393898 -10.5903388969 -1.8075000000
518 1 24.5494562006 -8.8409813626 0.0000000000
519 1 24.1110730115 -7.0915833738 1.8075000000
520 1 23.6726898223 -5.3420207825 3.6150000000
521 1 26.3029887579 -8.3996065948 -1.8075000000
522 1 25.8646055688 -6.6495768167 0.0000000000
523 1 25.4262223796 -4.8993555469 1.8075000000
524 1 24.9878391905 -3.1488233347 3.6150000000
525 1 27.6181381261 -6.2077590979 -1.8075000000
526 1 27.1797549369 -4.4569994952 0.0000000000
527 1 26.7413717478 -2.7059411398 1.8075000000
528 1 26.3029885586 -0.9544824317 3.6150000000
529 1 28.9332874942 -4.0149412610 -1.8075000000
530 1 28.4949043051 -2.2634594162 0.0000000000
531 1 28.0565211159 -0.5116166353 1.8075000000
532 1 27.6181379268 1.2406645803 3.6150000000
533 1 30.2484368624 -1.8213390193 -1.8075000000
534 1 29.8100536732 -0.0691906179 0.0000000000
535 1 29.3716704841 1.6833417142 1.8075000000
536 1 28.9332872949 3.4363106988 3.6150000000
537 1 31.5635862305 0.3728502474 -1.8075000000
538 1 31.1252030414 2.1255802515 0.0000000000
539 1 30.6868198522 3.8786874100 1.8075000000
540 1 30.2484366631 5.6322025723 3.6150000000
541 1 32.8787355987 2.5674400330 -1.8075000000
542 1 32.4403524095 4.3206540531 0.0000000000
543 1 32.0019692204 6.0742186931 1.8075000000
544 1 31.5635860312 7.8281475194 3.6150000000
545 1 34.1938849668 4.7622684296 -1.8075000000
546 1 33.7555017777 6.5158687432 0.0000000000
547 1 33.3171185885 8.2697821505 1.8075000000
548 1 32.8787353994 10.0240098006 3.6150000000
549 1 35.5090343350 6.9572042129 -1.8075000000
550 1 35.0706511458 8.7111009783 0.0000000000
551 1 34.6322679567 10.4652690198 1.8075000000
552 1 34.1938847675 12.2197013800 3.6150000000
553 1 36.8241837031 9.1521472985 -1.8075000000
554 1 36.3858005140 10.9062627176 0.0000000000
555 1 35.9474173248 12.6606078539 1.8075000000
556 1 35.5090341357 14.4151710459 3.6150000000
557 1 38.1393330712 11.3470257420 -1.8075000000
558 1 37.7009498821 13.1012953974 0.0000000000
559 1 39.4544824394 13.5417911010 -1.8075000000
560 1 22.3575406535 14.8418126999 1.8075000000
561 1 21.9191574643 -13.2197927075 3.6150000000
562 1 24.1110732108 -14.5289197790 0.0000000000
563 1 23.6726900216 -12.7798845937 1.8075000000
564 1 23.2343068325 -11.0310670919 3.6150000000
565 1 25.8646057680 -14.0892991816 -1.8075000000
566 1 25.4262225789 -12.3397539755 0.0000000000
567 1 24.9878393898 -10.5903388969 1.8075000000
568 1 24.5494562006 -8.8409813626 3.6150000000
569 1 27.1797551362 -11.8994894240 -1.8075000000
570 1 26.7413719471 -10.1495488660 0.0000000000
571 1 26.3029887579 -8.3996065948 1.8075000000
572 1 25.8646055688 -6.6495768167 3.6150000000
573 1 28.4949045043 -9.7087573906 -1.8075000000
574 1 28.0565213152 -7.9583162386 0.0000000000
575 1 27.6181381261 -6.2077590979 1.8075000000
576 1 27.1797549369 -4.4569994952 3.6150000000
577 1 29.8100538725 -7.5171397404 -1.8075000000
578 1 29.3716706834 -5.7661421532 0.0000000000
579 1 28.9332874942 -4.0149412610 1.8075000000
580 1 28.4949043051 -2.2634594162 3.6150000000
581 1 31.1252032406 -5.3247274737 -1.8075000000
582 1 30.6868200515 -3.5731635573 0.0000000000
583 1 30.2484368624 -1.8213390193 1.8075000000
584 1 29.8100536732 -0.0691906179 3.6150000000
585 1 32.4403526088 -3.1316463665 -1.8075000000
586 1 32.0019694196 -1.3795430012 0.0000000000
587 1 31.5635862305 0.3728502474 1.8075000000
588 1 31.1252030414 2.1255802515 3.6150000000
589 1 33.7555019769 -0.9380374212 -1.8075000000
590 1 33.3171187878 0.8145532781 0.0000000000
591 1 32.8787355987 2.5674400330 1.8075000000
592 1 32.4403524095 4.3206540531 3.6150000000
593 1 35.0706513451 1.2559593158 -1.8075000000
594 1 34.6322681559 3.0089712316 0.0000000000
595 1 34.1938849668 4.7622684296 1.8075000000
596 1 33.7555017777 6.5158687432 3.6150000000
597 1 36.3858007132 3.4502160630 -1.8075000000
598 1 35.9474175241 5.2035783694 0.0000000000
599 1 35.5090343350 6.9572042129 1.8075000000
600 1 35.0706511458 8.7111009783 3.6150000000
601 1 37.7009500814 5.6446237058 -1.8075000000
602 1 37.2625668922 7.3982675777 0.0000000000
603 1 36.8241837031 9.1521472985 1.8075000000
604 1 36.3858005140 10.9062627176 3.6150000000
605 1 39.0160994495 7.8390941441 -1.8075000000
606 1 38.5777162604 9.5929569394 0.0000000000
607 1 38.1393330712 11.3470257420 1.8075000000
608 1 37.7009498821 13.1012953974 3.6150000000
609 1 40.3312488177 10.0335597843 -1.8075000000
610 1 39.8928656285 11.7875871460 0.0000000000
611 1 39.4544824394 13.5417911010 1.8075000000
612 1 41.6463981858 12.2279713352 -1.8075000000
613 1 41.2080149967 13.9821177912 0.0000000000
614 1 42.9615475540 14.4222948337 -1.8075000000
615 1 24.1110732108 -14.5289197790 3.6150000000
616 1 25.8646057680 -14.0892991816 1.8075000000
617 1 25.4262225789 -12.3397539755 3.6150000000
618 1 27.6181383253 -13.6494953889 0.0000000000
619 1 27.1797551362 -11.8994894240 1.8075000000
620 1 26.7413719471 -10.1495488660 3.6150000000
621 1 29.3716708826 -13.2095740155 -1.8075000000
622 1 28.9332876935 -11.4591565184 0.0000000000
623 1 28.4949045043 -9.7087573906 1.8075000000
624 1 28.0565213152 -7.9583162386 3.6150000000
625 1 30.6868202508 -11.0188029943 -1.8075000000
626 1 30.2484370616 -9.2680056414 0.0000000000
627 1 29.8100538725 -7.5171397404 1.8075000000
628 1 29.3716706834 -5.7661421532 3.6150000000
629 1 32.0019696189 -8.8273207859 -1.8075000000
630 1 31.5635864298 -7.0760934815 0.0000000000
631 1 31.1252032406 -5.3247274737 1.8075000000
632 1 30.6868200515 -3.5731635573 3.6150000000
633 1 33.3171189871 -6.6351849613 -1.8075000000
634 1 32.8787357979 -4.8835100939 0.0000000000
635 1 32.4403526088 -3.1316463665 1.8075000000
636 1 32.0019694196 -1.3795430012 3.6150000000
637 1 34.6322683552 -4.4424812496 -1.8075000000
638 1 34.1938851661 -2.6903688890 0.0000000000