ITEM: TIMESTEP
0
ITEM: NUMBER OF ATOMS
3656
ITEM: BOX BOUNDS xy xz yz mm pp pp
-1.0009999999999999e+02 1.0009999999999999e+02 0.0000000000000000e+00
-1.4905042650000000e+01 1.4905042650000000e+01 0.0000000000000000e+00
-3.6150000000000002e+00 3.6150000000000002e+00 0.0000000000000000e+00
ITEM: ATOMS id type x y z c_csym c_energy
1 2 -3.986e-07 -14.4944 3.615 3.19921 -3.02011
2 2 1.993e-07 7.87055 -1.8075 3.19879 -3.02361
3 2 0.876767 11.3866 -1.8075 5.38751 -2.90241
4 2 1.31515 13.1454 -2.40807e-15 8.72167 12.4479
5 2 1.31515 13.1454 3.615 8.72167 12.4479
6 1 2.6303 11.4098 -2.7075 5.39028 -2.89127
7 1 2.19192 13.158 -0.9 6.40976 11.9455
8 1 3.94545 13.6226 -2.7075 6.57811e-05 -3.61435
9 2 1.31515 5.69412 -1.8075 8.73276 12.4504
10 2 1.31515 5.69412 1.8075 8.73276 12.4504
11 2 1.993e-07 7.87055 1.8075 3.19879 -3.02361
12 1 2.19192 5.70396 -2.7075 6.39793 11.9482
13 1 1.75353 7.45254 -0.9 10.2962 -2.59299
14 2 0.438383 9.62843 -2.40807e-15 5.9512 -3.46284
15 2 0.876767 11.3866 1.8075 5.38751 -2.90241
16 1 3.50706 7.91176 -2.7075 1.57878 -3.52002
17 1 3.06868 9.66098 -0.9 5.5399 -3.45254
18 1 2.6303 11.4098 0.9075 5.39028 -2.89127
19 1 2.19192 13.158 2.715 6.40976 11.9455
20 1 4.82221 10.1217 -2.7075 1.88493e-05 -3.51776
21 1 4.38383 11.8722 -0.9 3.33738e-05 -3.57067
22 1 3.94545 13.6226 0.9075 6.57811e-05 -3.61435
23 1 6.13736 12.3347 -2.7075 3.40717e-05 -3.5399
24 1 5.69898 14.0875 -0.9 0.000314825 -3.5421
25 2 1.31515 -1.75826 3.615 8.73361 12.4507
26 2 -2.84217e-14 0.419657 -2.40807e-15 3.1988 -3.0245
27 1 1.75353 -6.017e-06 -2.7075 10.2958 -2.59338
28 2 0.438383 2.17781 -1.8075 5.95075 -3.46285
29 2 0.876766 3.93592 -2.40807e-15 5.38714 -2.90148
30 2 0.438383 9.62843 3.615 5.9512 -3.46284
31 1 3.06868 2.20612 -2.7075 5.53689 -3.45247
32 1 2.6303 3.95511 -0.9 5.38774 -2.89222
33 1 2.19192 5.70396 0.9075 6.39793 11.9482
34 1 1.75353 7.45254 2.715 10.2962 -2.59299
35 1 4.38383 4.41287 -2.7075 2.79002e-06 -3.57024
36 1 3.94545 6.16235 -0.9 5.08423e-06 -3.61455
37 1 3.50706 7.91176 0.9075 1.57878 -3.52002
38 1 3.06868 9.66098 2.715 5.5399 -3.45254
39 1 5.69898 6.62079 -2.7075 6.48028e-06 -3.54204
40 1 5.2606 8.37119 -0.9 1.09562e-05 -3.5325
41 1 4.82221 10.1217 0.9075 1.88493e-05 -3.51776
42 1 4.38383 11.8722 2.715 3.33738e-05 -3.57067
43 1 7.01413 8.8305 -2.7075 1.21465e-05 -3.53986
44 1 6.57575 10.5824 -0.9 2.01582e-05 -3.53979
45 1 6.13736 12.3347 0.9075 3.40717e-05 -3.5399
46 1 5.69898 14.0875 2.715 0.000314825 -3.5421
47 1 8.32928 11.0426 -2.7075 1.94637e-05 -3.53987
48 1 7.8909 12.7966 -0.9 1.92023e-05 -3.54094
49 1 9.64443 13.2575 -2.7075 7.78852e-05 -3.54092
50 2 -1.993e-07 -7.03454 -1.8075 3.19887 -3.02367
51 2 0.876766 -3.51667 -1.8075 5.38617 -2.90152
52 2 1.31515 -1.75826 -2.40807e-15 8.73361 12.4507
53 2 -2.84217e-14 0.419657 3.615 3.1988 -3.0245
54 2 0.876766 3.93592 3.615 5.38714 -2.90148
55 1 2.6303 -3.49758 -2.7075 5.3853 -2.89223
56 1 2.19192 -1.74884 -0.9 6.39343 11.9487
57 1 1.75353 -6.017e-06 0.9075 10.2958 -2.59338
58 2 0.438383 2.17781 1.8075 5.95075 -3.46285
59 1 3.94545 -1.29174 -2.7075 2.33234e-07 -3.61459
60 1 3.50707 0.457134 -0.9 1.5788 -3.5201
61 1 3.06868 2.20612 0.9075 5.53689 -3.45247
62 1 2.6303 3.95511 2.715 5.38774 -2.89222
63 1 5.2606 0.914157 -2.7075 8.55621e-07 -3.53263
64 1 4.82221 2.66344 -0.9 1.49446e-06 -3.5178
65 1 4.38383 4.41287 0.9075 2.79002e-06 -3.57024
66 1 3.94545 6.16235 2.715 5.08423e-06 -3.61455
67 1 6.57575 3.1206 -2.7075 2.4208e-06 -3.53996
68 1 6.13736 4.87057 -0.9 3.89274e-06 -3.53932
69 1 5.69898 6.62079 0.9075 6.48028e-06 -3.54204
70 1 5.2606 8.37119 2.715 1.09562e-05 -3.5325
71 1 7.8909 5.32804 -2.7075 4.89565e-06 -3.53994
72 1 7.45251 7.07907 -0.9 7.56899e-06 -3.5399
73 1 7.01413 8.8305 0.9075 1.21465e-05 -3.53986
74 1 6.57575 10.5824 2.715 2.01582e-05 -3.53979
75 1 9.20605 7.53692 -2.7075 8.13881e-06 -3.5399
76 1 8.76766 9.2894 -0.9 1.23413e-05 -3.53985
77 1 8.32928 11.0426 0.9075 1.94637e-05 -3.53987
78 1 7.8909 12.7966 2.715 1.92023e-05 -3.54094
79 1 10.5212 9.7476 -2.7075 1.16529e-05 -3.53985
80 1 10.0828 11.502 -0.9 1.72872e-05 -3.54016
81 1 9.64443 13.2575 0.9075 7.78852e-05 -3.54092
82 1 11.8363 11.9603 -2.7075 1.45086e-05 -3.54056
83 1 11.398 13.717 -0.9 0.000325222 -3.54065
84 1 13.1515 14.1748 -2.7075 0.000736532 -3.54036
85 2 1.31515 -9.21151 -1.8075 8.7305 12.449
86 2 1.31515 -9.21151 1.8075 8.7305 12.449
87 2 -1.993e-07 -7.03454 1.8075 3.19887 -3.02367
88 1 2.19192 -9.2008 -2.7075 6.39269 11.9475
89 1 1.75353 -7.45255 -0.9 10.2957 -2.5938
90 2 0.438383 -5.27537 -2.40807e-15 5.95048 -3.46274
91 2 0.876766 -3.51667 1.8075 5.38617 -2.90152
92 1 3.50707 -6.99417 -2.7075 1.57886 -3.52012
93 1 3.06868 -5.24607 -0.9 5.53547 -3.4526
94 1 2.6303 -3.49758 0.9075 5.3853 -2.89223
95 1 2.19192 -1.74884 2.715 6.39343 11.9487
96 1 4.82221 -4.78863 -2.7075 1.46265e-06 -3.51783
97 1 4.38383 -3.04037 -0.9 6.21202e-07 -3.57022
98 1 3.94545 -1.29174 0.9075 2.33234e-07 -3.61459
99 1 3.50707 0.457134 2.715 1.5788 -3.5201
100 1 6.13736 -2.58353 -2.7075 9.37879e-07 -3.53936
101 1 5.69898 -0.834867 -0.9 6.96286e-07 -3.54211
102 1 5.2606 0.914157 0.9075 8.55621e-07 -3.53263
103 1 4.82221 2.66344 2.715 1.49446e-06 -3.5178
104 1 7.45251 -0.378357 -2.7075 1.39036e-06 -3.53998
105 1 7.01413 1.37093 -0.9 1.65832e-06 -3.53997
106 1 6.57575 3.1206 0.9075 2.4208e-06 -3.53996
107 1 6.13736 4.87057 2.715 3.89274e-06 -3.53932
108 1 8.76766 1.82731 -2.7075 2.51127e-06 -3.53998
109 1 8.32928 3.57745 -0.9 3.34768e-06 -3.53996
110 1 7.8909 5.32804 0.9075 4.89565e-06 -3.53994
111 1 7.45251 7.07907 2.715 7.56899e-06 -3.5399
112 1 10.0828 4.03384 -2.7075 4.1114e-06 -3.53997
113 1 9.64443 5.78508 -0.9 5.61529e-06 -3.53994
114 1 9.20605 7.53692 0.9075 8.13881e-06 -3.5399
115 1 8.76766 9.2894 2.715 1.23413e-05 -3.53985
116 1 11.398 6.24152 -2.7075 5.96537e-06 -3.53995
117 1 10.9596 7.99415 -0.9 8.15493e-06 -3.53991
118 1 10.5212 9.7476 0.9075 1.16529e-05 -3.53985
119 1 10.0828 11.502 2.715 1.72872e-05 -3.54016
120 1 12.7131 8.45056 -2.7075 7.72857e-06 -3.53992
121 1 12.2747 10.2049 -0.9 1.04207e-05 -3.53987
122 1 11.8363 11.9603 0.9075 1.45086e-05 -3.54056
123 1 11.398 13.717 2.715 0.000325222 -3.54065
124 1 14.0283 10.661 -2.7075 9.00044e-06 -3.53988
125 1 13.5899 12.4172 -0.9 1.15966e-05 -3.54102
126 1 13.1515 14.1748 0.9075 0.000736532 -3.54036
127 1 15.3434 12.8727 -2.7075 2.06703e-05 -3.54128
128 2 -3.986e-07 -14.4944 -2.40807e-15 3.19921 -3.02011
129 1 1.75353 14.905 -2.7075 10.2899 -2.59145
130 2 0.438383 -12.732 -1.8075 5.95062 -3.46286
131 2 0.876766 -10.9712 -2.40807e-15 5.38338 -2.90254
132 2 0.438383 -5.27537 3.615 5.95048 -3.46274
133 1 3.06868 -12.6951 -2.7075 5.53399 -3.45283
134 1 2.6303 -10.9484 -0.9 5.37975 -2.89125
135 1 2.19192 -9.2008 0.9075 6.39269 11.9475
136 1 1.75353 -7.45255 2.715 10.2957 -2.5938
137 1 4.38383 -10.4884 -2.7075 1.11988e-05 -3.57033
138 1 3.94545 -8.74169 -0.9 6.58679e-06 -3.61442
139 1 3.50707 -6.99417 0.9075 1.57886 -3.52012
140 1 3.06868 -5.24607 2.715 5.53547 -3.4526
141 1 5.69898 -8.28339 -2.7075 5.00482e-06 -3.54208
142 1 5.2606 -6.53636 -0.9 2.86095e-06 -3.53262
143 1 4.82221 -4.78863 0.9075 1.46265e-06 -3.51783
144 1 4.38383 -3.04037 2.715 6.21202e-07 -3.57022
145 1 7.01413 -6.07926 -2.7075 2.63753e-06 -3.53998
146 1 6.57575 -4.33171 -0.9 1.56962e-06 -3.53998
147 1 6.13736 -2.58353 0.9075 9.37879e-07 -3.53936
148 1 5.69898 -0.834867 2.715 6.96286e-07 -3.54211
149 1 8.32928 -3.87541 -2.7075 1.97967e-06 -3.53999
150 1 7.8909 -2.12717 -0.9 1.51018e-06 -3.53999
151 1 7.45251 -0.378357 0.9075 1.39036e-06 -3.53998
152 1 7.01413 1.37093 2.715 1.65832e-06 -3.53997
153 1 9.64443 -1.67138 -2.7075 2.1841e-06 -3.54
154 1 9.20605 0.0776836 -0.9 2.16256e-06 -3.53999
155 1 8.76766 1.82731 0.9075 2.51127e-06 -3.53998
156 1 8.32928 3.57745 2.715 3.34768e-06 -3.53996
157 1 10.9596 0.53316 -2.7075 2.8697e-06 -3.54001
158 1 10.5212 2.28319 -0.9 3.26399e-06 -3.53999
159 1 10.0828 4.03384 0.9075 4.1114e-06 -3.53997
160 1 9.64443 5.78508 2.715 5.61529e-06 -3.53994
161 1 12.2747 2.73847 -2.7075 3.81261e-06 -3.54
162 1 11.8363 4.48964 -0.9 4.61022e-06 -3.53998
163 1 11.398 6.24152 0.9075 5.96537e-06 -3.53995
164 1 10.9596 7.99415 2.715 8.15493e-06 -3.53991
165 1 13.5899 4.94474 -2.7075 4.81646e-06 -3.53999
166 1 13.1515 6.69722 -0.9 5.95936e-06 -3.53996
167 1 12.7131 8.45056 0.9075 7.72857e-06 -3.53992
168 1 12.2747 10.2049 2.715 1.04207e-05 -3.53987
169 1 14.905 7.15208 -2.7075 5.6761e-06 -3.53998
170 1 14.4666 8.90603 -0.9 7.03216e-06 -3.53994
171 1 14.0283 10.661 0.9075 9.00044e-06 -3.53988
172 1 13.5899 12.4172 2.715 1.15966e-05 -3.54102
173 1 16.2202 9.36047 -2.7075 6.22338e-06 -3.53996
174 1 15.7818 11.116 -0.9 7.6325e-06 -3.53999
175 1 15.3434 12.8727 0.9075 2.06703e-05 -3.54128
176 1 17.5353 11.5698 -2.7075 6.42507e-06 -3.54028
177 1 17.0969 13.3269 -0.9 8.10273e-05 -3.54108
178 1 18.8505 13.7796 -2.7075 0.000242588 -3.54072
179 2 0.876766 -10.9712 3.615 5.38338 -2.90254
180 1 1.75353 14.905 0.9075 10.2899 -2.59145
181 2 0.438383 -12.732 1.8075 5.95062 -3.46286
182 1 3.50707 -14.4405 -0.9 1.57907 -3.51972
183 1 3.06868 -12.6951 0.9075 5.53399 -3.45283
184 1 2.6303 -10.9484 2.715 5.37975 -2.89125
185 1 5.2606 -13.9778 -2.7075 5.22001e-05 -3.53154
186 1 4.82221 -12.2339 -0.9 1.84332e-05 -3.5177
187 1 4.38383 -10.4884 0.9075 1.11988e-05 -3.57033
188 1 3.94545 -8.74169 2.715 6.58679e-06 -3.61442
189 1 6.57575 -11.7743 -2.7075 1.29656e-05 -3.53986
190 1 6.13736 -10.0295 -0.9 8.20383e-06 -3.53932
191 1 5.69898 -8.28339 0.9075 5.00482e-06 -3.54208
192 1 5.2606 -6.53636 2.715 2.86095e-06 -3.53262
193 1 7.8909 -9.57178 -2.7075 6.59639e-06 -3.53996
194 1 7.45251 -7.82602 -0.9 4.24879e-06 -3.53997
195 1 7.01413 -6.07926 0.9075 2.63753e-06 -3.53998
196 1 6.57575 -4.33171 2.715 1.56962e-06 -3.53998
197 1 9.20605 -7.36966 -2.7075 4.07735e-06 -3.53999
198 1 8.76766 -5.62295 -0.9 2.81306e-06 -3.54
199 1 8.32928 -3.87541 0.9075 1.97967e-06 -3.53999
200 1 7.8909 -2.12717 2.715 1.51018e-06 -3.53999
201 1 10.5212 -5.16747 -2.7075 3.18119e-06 -3.54001
202 1 10.0828 -3.41979 -0.9 2.52456e-06 -3.54001
203 1 9.64443 -1.67138 0.9075 2.1841e-06 -3.54
204 1 9.20605 0.0776836 2.715 2.16256e-06 -3.53999
205 1 11.8363 -2.96492 -2.7075 3.05235e-06 -3.54003
206 1 11.398 -1.21623 -0.9 2.81703e-06 -3.54002
207 1 10.9596 0.53316 0.9075 2.8697e-06 -3.54001
208 1 10.5212 2.28319 2.715 3.26399e-06 -3.53999
209 1 13.1515 -0.761775 -2.7075 3.30766e-06 -3.54003
210 1 12.7131 0.987993 -0.9 3.40964e-06 -3.54002
211 1 12.2747 2.73847 0.9075 3.81261e-06 -3.54
212 1 11.8363 4.48964 2.715 4.61022e-06 -3.53998
213 1 14.4666 1.44212 -2.7075 3.73344e-06 -3.54003
214 1 14.0283 3.19305 -0.9 4.11336e-06 -3.54001
215 1 13.5899 4.94474 0.9075 4.81646e-06 -3.53999
216 1 13.1515 6.69722 2.715 5.95936e-06 -3.53996
217 1 15.7818 3.64687 -2.7075 4.17566e-06 -3.54003
218 1 15.3434 5.39905 -0.9 4.76216e-06 -3.54001
219 1 14.905 7.15208 0.9075 5.6761e-06 -3.53998
220 1 14.4666 8.90603 2.715 7.03216e-06 -3.53994
221 1 17.0969 5.85251 -2.7075 4.512e-06 -3.54002
222 1 16.6586 7.60601 -0.9 5.21592e-06 -3.53999
223 1 16.2202 9.36047 0.9075 6.22338e-06 -3.53996
224 1 15.7818 11.116 2.715 7.6325e-06 -3.53999
225 1 18.4121 8.05899 -2.7075 4.66888e-06 -3.54001
226 1 17.9737 9.81384 -0.9 5.41014e-06 -3.53998
227 1 17.5353 11.5698 0.9075 6.42507e-06 -3.54028
228 1 17.0969 13.3269 2.715 8.10273e-05 -3.54108
229 1 19.7272 10.2662 -2.7075 4.65078e-06 -3.54
230 1 19.2889 12.0223 -0.9 5.39903e-06 -3.54062
231 1 18.8505 13.7796 0.9075 0.000242588 -3.54072
232 1 21.0424 12.4738 -2.7075 4.51994e-06 -3.54095
233 1 20.604 14.2312 -0.9 0.000469902 -3.54042
234 1 3.50707 -14.4405 2.715 1.57907 -3.51972
235 1 5.2606 -13.9778 0.9075 5.22001e-05 -3.53154
236 1 4.82221 -12.2339 2.715 1.84332e-05 -3.5177
237 1 7.45251 14.5517 -2.7075 0.000962535 -3.5397
238 1 7.01413 -13.5174 -0.9 3.50806e-05 -3.53861
239 1 6.57575 -11.7743 0.9075 1.29656e-05 -3.53986
240 1 6.13736 -10.0295 2.715 8.20383e-06 -3.53932
241 1 8.76766 -13.0592 -2.7075 1.52078e-05 -3.53874
242 1 8.32928 -11.3163 -0.9 1.00264e-05 -3.53995
243 1 7.8909 -9.57178 0.9075 6.59639e-06 -3.53996
244 1 7.45251 -7.82602 2.715 4.24879e-06 -3.53997
245 1 10.0828 -10.8598 -2.7075 8.58132e-06 -3.53997
246 1 9.64443 -9.11535 -0.9 5.91215e-06 -3.53998
247 1 9.20605 -7.36966 0.9075 4.07735e-06 -3.53999
248 1 8.76766 -5.62295 2.715 2.81306e-06 -3.54
249 1 11.398 -8.66014 -2.7075 5.67729e-06 -3.54001
250 1 10.9596 -6.9143 -0.9 4.19782e-06 -3.54001
251 1 10.5212 -5.16747 0.9075 3.18119e-06 -3.54001
252 1 10.0828 -3.41979 2.715 2.52456e-06 -3.54001
253 1 12.7131 -6.45992 -2.7075 4.37976e-06 -3.54003
254 1 12.2747 -4.71284 -0.9 3.56426e-06 -3.54003
255 1 11.8363 -2.96492 0.9075 3.05235e-06 -3.54003
256 1 11.398 -1.21623 2.715 2.81703e-06 -3.54002
257 1 14.0283 -4.25906 -2.7075 3.84686e-06 -3.54005
258 1 13.5899 -2.51081 -0.9 3.45836e-06 -3.54004
259 1 13.1515 -0.761775 0.9075 3.30766e-06 -3.54003
260 1 12.7131 0.987993 2.715 3.40964e-06 -3.54002
261 1 15.3434 -2.05747 -2.7075 3.69204e-06 -3.54006
262 1 14.905 -0.308056 -0.9 3.60598e-06 -3.54005
263 1 14.4666 1.44212 0.9075 3.73344e-06 -3.54003
264 1 14.0283 3.19305 2.715 4.11336e-06 -3.54001
265 1 16.6586 0.144908 -2.7075 3.70733e-06 -3.54006
266 1 16.2202 1.8955 -0.9 3.84035e-06 -3.54005
267 1 15.7818 3.64687 0.9075 4.17566e-06 -3.54003
268 1 15.3434 5.39905 2.715 4.76216e-06 -3.54001
269 1 17.9737 2.3481 -2.7075 3.76272e-06 -3.54006
270 1 17.5353 4.0999 -0.9 4.04337e-06 -3.54004
271 1 17.0969 5.85251 0.9075 4.512e-06 -3.54002
272 1 16.6586 7.60601 2.715 5.21592e-06 -3.53999
273 1 19.2889 4.5521 -2.7075 3.77442e-06 -3.54006
274 1 18.8505 6.3051 -0.9 4.13789e-06 -3.54004
275 1 18.4121 8.05899 0.9075 4.66888e-06 -3.54001
276 1 17.9737 9.81384 2.715 5.41014e-06 -3.53998
277 1 20.604 6.7568 -2.7075 3.70256e-06 -3.54006
278 1 20.1656 8.51101 -0.9 4.10105e-06 -3.54003
279 1 19.7272 10.2662 0.9075 4.65078e-06 -3.54
280 1 19.2889 12.0223 2.715 5.39903e-06 -3.54062
281 1 21.9192 8.96209 -2.7075 3.55402e-06 -3.54005
282 1 21.4808 10.7174 -0.9 3.96931e-06 -3.54002
283 1 21.0424 12.4738 0.9075 4.51994e-06 -3.54095
284 1 20.604 14.2312 2.715 0.000469902 -3.54042
285 1 23.2343 11.1678 -2.7075 3.37088e-06 -3.54011
286 1 22.7959 12.9241 -0.9 1.38828e-05 -3.54109
287 1 24.5495 13.3736 -2.7075 4.78331e-05 -3.5409
288 1 7.45251 14.5517 0.9075 0.000962535 -3.5397
289 1 7.01413 -13.5174 2.715 3.50806e-05 -3.53861
290 1 9.20605 -14.8001 -0.9 0.000634888 -3.53938
291 1 8.76766 -13.0592 0.9075 1.52078e-05 -3.53874
292 1 8.32928 -11.3163 2.715 1.00264e-05 -3.53995
293 1 10.9596 -14.3442 -2.7075 0.000308738 -3.53911
294 1 10.5212 -12.6029 -0.9 1.25779e-05 -3.53916
295 1 10.0828 -10.8598 0.9075 8.58132e-06 -3.53997
296 1 9.64443 -9.11535 2.715 5.91215e-06 -3.53998
297 1 12.2747 -12.1483 -2.7075 1.09201e-05 -3.53958
298 1 11.8363 -10.4048 -0.9 7.8106e-06 -3.53999
299 1 11.398 -8.66014 0.9075 5.67729e-06 -3.54001
300 1 10.9596 -6.9143 2.715 4.19782e-06 -3.54001
301 1 13.5899 -9.95114 -2.7075 7.25603e-06 -3.54002
302 1 13.1515 -8.20605 -0.9 5.56906e-06 -3.54003
303 1 12.7131 -6.45992 0.9075 4.37976e-06 -3.54003
304 1 12.2747 -4.71284 2.715 3.56426e-06 -3.54003
305 1 14.905 -7.75301 -2.7075 5.42179e-06 -3.54005
306 1 14.4666 -6.00648 -0.9 4.48717e-06 -3.54005
307 1 14.0283 -4.25906 0.9075 3.84686e-06 -3.54005
308 1 13.5899 -2.51081 2.715 3.45836e-06 -3.54004
309 1 16.2202 -5.55394 -2.7075 4.46469e-06 -3.54007
310 1 15.7818 -3.80611 -0.9 3.97666e-06 -3.54006
311 1 15.3434 -2.05747 0.9075 3.69204e-06 -3.54006
312 1 14.905 -0.308056 2.715 3.60598e-06 -3.54005
313 1 17.5353 -3.35397 -2.7075 3.94896e-06 -3.54008
314 1 17.0969 -1.60492 -0.9 3.7479e-06 -3.54007
315 1 16.6586 0.144908 0.9075 3.70733e-06 -3.54006
316 1 16.2202 1.8955 2.715 3.84035e-06 -3.54005
317 1 18.8505 -1.15313 -2.7075 3.65e-06 -3.54009
318 1 18.4121 0.597103 -0.9 3.63821e-06 -3.54008
319 1 17.9737 2.3481 0.9075 3.76272e-06 -3.54006
320 1 17.5353 4.0999 2.715 4.04337e-06 -3.54004
321 1 20.1656 1.04853 -2.7075 3.44071e-06 -3.54009
322 1 19.7272 2.79992 -0.9 3.54882e-06 -3.54008
323 1 19.2889 4.5521 0.9075 3.77442e-06 -3.54006
324 1 18.8505 6.3051 2.715 4.13789e-06 -3.54004
325 1 21.4808 3.25095 -2.7075 3.24884e-06 -3.54009
326 1 21.0424 5.00347 -0.9 3.42519e-06 -3.54007
327 1 20.604 6.7568 0.9075 3.70256e-06 -3.54006
328 1 20.1656 8.51101 2.715 4.10105e-06 -3.54003
329 1 22.7959 5.45403 -2.7075 3.04193e-06 -3.54009
330 1 22.3575 7.20764 -0.9 3.25278e-06 -3.54007
331 1 21.9192 8.96209 0.9075 3.55402e-06 -3.54005
332 1 21.4808 10.7174 2.715 3.96931e-06 -3.54002
333 1 24.1111 7.65764 -2.7075 2.81926e-06 -3.54009
334 1 23.6727 9.41227 -0.9 3.05039e-06 -3.54007
335 1 23.2343 11.1678 0.9075 3.37088e-06 -3.54011
336 1 22.7959 12.9241 2.715 1.38828e-05 -3.54109
337 1 25.4262 9.86159 -2.7075 2.60006e-06 -3.54009
338 1 24.9878 11.6171 -0.9 2.85204e-06 -3.54032
339 1 24.5495 13.3736 0.9075 4.78331e-05 -3.5409
340 1 26.7414 12.0657 -2.7075 2.40606e-06 -3.54056
341 1 26.303 13.8221 -0.9 0.000128104 -3.54061
342 1 28.0565 14.2698 -2.7075 0.000238615 -3.54039
343 1 9.20605 -14.8001 2.715 0.000634888 -3.53938
344 1 10.9596 -14.3442 0.9075 0.000308738 -3.53911
345 1 10.5212 -12.6029 2.715 1.25779e-05 -3.53916
346 1 12.7131 -13.8902 -0.9 8.56547e-05 -3.53876
347 1 12.2747 -12.1483 0.9075 1.09201e-05 -3.53958
348 1 11.8363 -10.4048 2.715 7.8106e-06 -3.53999
349 1 14.4666 -13.4378 -2.7075 1.74132e-05 -3.53857
350 1 14.0283 -11.6951 -0.9 9.62475e-06 -3.53991
351 1 13.5899 -9.95114 0.9075 7.25603e-06 -3.54002
352 1 13.1515 -8.20605 2.715 5.56906e-06 -3.54003
353 1 15.7818 -11.2431 -2.7075 8.47647e-06 -3.54003
354 1 15.3434 -9.49858 -0.9 6.72139e-06 -3.54004
355 1 14.905 -7.75301 0.9075 5.42179e-06 -3.54005
356 1 14.4666 -6.00648 2.715 4.48717e-06 -3.54005
357 1 17.0969 -9.04704 -2.7075 6.15066e-06 -3.54006
358 1 16.6586 -7.30093 -0.9 5.17796e-06 -3.54007
359 1 16.2202 -5.55394 0.9075 4.46469e-06 -3.54007
360 1 15.7818 -3.80611 2.715 3.97666e-06 -3.54006
361 1 18.4121 -6.84972 -2.7075 4.83874e-06 -3.54008
362 1 17.9737 -5.10224 -0.9 4.3098e-06 -3.54008
363 1 17.5353 -3.35397 0.9075 3.94896e-06 -3.54008
364 1 17.0969 -1.60492 2.715 3.7479e-06 -3.54007
365 1 19.7272 -4.65134 -2.7075 4.04742e-06 -3.5401
366 1 19.2889 -2.90261 -0.9 3.78758e-06 -3.54009
367 1 18.8505 -1.15313 0.9075 3.65e-06 -3.54009
368 1 18.4121 0.597103 2.715 3.63821e-06 -3.54008
369 1 21.0424 -2.452 -2.7075 3.52871e-06 -3.54011
370 1 20.604 -0.7021 -0.9 3.43671e-06 -3.5401
371 1 20.1656 1.04853 0.9075 3.44071e-06 -3.54009
372 1 19.7272 2.79992 2.715 3.54882e-06 -3.54008
373 1 22.3575 -0.251803 -2.7075 3.14897e-06 -3.54011
374 1 21.9192 1.49921 -0.9 3.15986e-06 -3.5401
375 1 21.4808 3.25095 0.9075 3.24884e-06 -3.54009
376 1 21.0424 5.00347 2.715 3.42519e-06 -3.54007
377 1 23.6727 1.94915 -2.7075 2.83564e-06 -3.54011
378 1 23.2343 3.70122 -0.9 2.90625e-06 -3.5401
379 1 22.7959 5.45403 0.9075 3.04193e-06 -3.54009
380 1 22.3575 7.20764 2.715 3.25278e-06 -3.54007
381 1 24.9878 4.15073 -2.7075 2.55406e-06 -3.54011
382 1 24.5495 5.90381 -0.9 2.65798e-06 -3.5401
383 1 24.1111 7.65764 0.9075 2.81926e-06 -3.54009
384 1 23.6727 9.41227 2.715 3.05039e-06 -3.54007
385 1 26.303 6.35283 -2.7075 2.29466e-06 -3.54011
386 1 25.8646 8.10683 -0.9 2.4196e-06 -3.5401
387 1 25.4262 9.86159 0.9075 2.60006e-06 -3.54009
388 1 24.9878 11.6171 2.715 2.85204e-06 -3.54032
389 1 27.6181 8.55527 -2.7075 2.06204e-06 -3.54012
390 1 27.1798 10.3101 -0.9 2.20524e-06 -3.5401
391 1 26.7414 12.0657 0.9075 2.40606e-06 -3.54056
392 1 26.303 13.8221 2.715 0.000128104 -3.54061
393 1 28.9333 10.7579 -2.7075 1.86384e-06 -3.54011
394 1 28.4949 12.5135 -0.9 2.05211e-06 -3.54077
395 1 28.0565 14.2698 0.9075 0.000238615 -3.54039
396 1 30.2484 12.9606 -2.7075 7.27623e-06 -3.54086
397 1 12.7131 -13.8902 2.715 8.56547e-05 -3.53876
398 1 14.905 14.6308 -0.9 0.00128499 -3.53992
399 1 14.4666 -13.4378 0.9075 1.74132e-05 -3.53857
400 1 14.0283 -11.6951 2.715 9.62475e-06 -3.53991
401 1 16.6586 -14.7291 -2.7075 0.000616101 -3.53961
402 1 16.2202 -12.9867 -0.9 1.07676e-05 -3.53888
403 1 15.7818 -11.2431 0.9075 8.47647e-06 -3.54003
404 1 15.3434 -9.49858 2.715 6.72139e-06 -3.54004
405 1 17.9737 -12.5366 -2.7075 8.99389e-06 -3.53938
406 1 17.5353 -10.7923 -0.9 7.4182e-06 -3.54005
407 1 17.0969 -9.04704 0.9075 6.15066e-06 -3.54006
408 1 16.6586 -7.30093 2.715 5.17796e-06 -3.54007
409 1 19.2889 -10.3423 -2.7075 6.44407e-06 -3.54007
410 1 18.8505 -8.5964 -0.9 5.54795e-06 -3.54008
411 1 18.4121 -6.84972 0.9075 4.83874e-06 -3.54008
412 1 17.9737 -5.10224 2.715 4.3098e-06 -3.54008
413 1 20.604 -8.14656 -2.7075 4.93613e-06 -3.5401
414 1 20.1656 -6.39932 -0.9 4.43014e-06 -3.5401
415 1 19.7272 -4.65134 0.9075 4.04742e-06 -3.5401
416 1 19.2889 -2.90261 2.715 3.78758e-06 -3.54009
417 1 21.9192 -5.94965 -2.7075 3.98393e-06 -3.54011
418 1 21.4808 -4.20118 -0.9 3.71218e-06 -3.54011
419 1 21.0424 -2.452 0.9075 3.52871e-06 -3.54011
420 1 20.604 -0.7021 2.715 3.43671e-06 -3.5401
421 1 23.2343 -3.75172 -2.7075 3.338e-06 -3.54012
422 1 22.7959 -2.0021 -0.9 3.2099e-06 -3.54012
423 1 22.3575 -0.251803 0.9075 3.14897e-06 -3.54011
424 1 21.9192 1.49921 2.715 3.15986e-06 -3.5401
425 1 24.5495 -1.55289 -2.7075 2.8638e-06 -3.54013
426 1 24.1111 0.197786 -0.9 2.82319e-06 -3.54012
427 1 23.6727 1.94915 0.9075 2.83564e-06 -3.54011
428 1 23.2343 3.70122 2.715 2.90625e-06 -3.5401
429 1 25.8646 0.646697 -2.7075 2.4879e-06 -3.54013
430 1 25.4262 2.39838 -0.9 2.49926e-06 -3.54012
431 1 24.9878 4.15073 0.9075 2.55406e-06 -3.54011
432 1 24.5495 5.90381 2.715 2.65798e-06 -3.5401
433 1 27.1798 2.84693 -2.7075 2.17251e-06 -3.54013
434 1 26.7414 4.59954 -0.9 2.21466e-06 -3.54013
435 1 26.303 6.35283 0.9075 2.29466e-06 -3.54011
436 1 25.8646 8.10683 2.715 2.4196e-06 -3.5401
437 1 28.4949 5.04766 -2.7075 1.90141e-06 -3.54014
438 1 28.0565 6.80113 -0.9 1.96373e-06 -3.54013
439 1 27.6181 8.55527 0.9075 2.06204e-06 -3.54012
440 1 27.1798 10.3101 2.715 2.20524e-06 -3.5401
441 1 29.8101 7.24876 -2.7075 1.67017e-06 -3.54014
442 1 29.3717 9.00301 -0.9 1.74874e-06 -3.54013
443 1 28.9333 10.7579 0.9075 1.86384e-06 -3.54011
444 1 28.4949 12.5135 2.715 2.05211e-06 -3.54077
445 1 31.1252 9.45009 -2.7075 1.47822e-06 -3.54014
446 1 30.6868 11.205 -0.9 1.5716e-06 -3.54018
447 1 30.2484 12.9606 0.9075 7.27623e-06 -3.54086
448 1 32.4404 11.6515 -2.7075 1.3233e-06 -3.54032
449 1 32.002 13.407 -0.9 2.45003e-05 -3.54071
450 1 33.7555 13.8528 -2.7075 6.37552e-05 -3.54051
451 1 14.905 14.6308 2.715 0.00128499 -3.53992
452 1 16.6586 -14.7291 0.9075 0.000616101 -3.53961
453 1 16.2202 -12.9867 2.715 1.07676e-05 -3.53888
454 1 18.4121 -14.28 -0.9 0.000242255 -3.53941
455 1 17.9737 -12.5366 0.9075 8.99389e-06 -3.53938
456 1 17.5353 -10.7923 2.715 7.4182e-06 -3.54005
457 1 20.1656 -13.8317 -2.7075 5.6574e-05 -3.53916
458 1 19.7272 -12.0874 -0.9 7.51309e-06 -3.53975
459 1 19.2889 -10.3423 0.9075 6.44407e-06 -3.54007
460 1 18.8505 -8.5964 2.715 5.54795e-06 -3.54008
461 1 21.4808 -11.6389 -2.7075 6.27682e-06 -3.54002
462 1 21.0424 -9.89308 -0.9 5.55903e-06 -3.54009
463 1 20.604 -8.14656 0.9075 4.93613e-06 -3.5401
464 1 20.1656 -6.39932 2.715 4.43014e-06 -3.5401
465 1 22.7959 -9.44458 -2.7075 4.7665e-06 -3.54011
466 1 22.3575 -7.69745 -0.9 4.33901e-06 -3.54011
467 1 21.9192 -5.94965 0.9075 3.98393e-06 -3.54011
468 1 21.4808 -4.20118 2.715 3.71218e-06 -3.54011
469 1 24.1111 -7.249 -2.7075 3.77507e-06 -3.54013
470 1 23.6727 -5.50068 -0.9 3.52864e-06 -3.54013
471 1 23.2343 -3.75172 0.9075 3.338e-06 -3.54012
472 1 22.7959 -2.0021 2.715 3.2099e-06 -3.54012
473 1 25.4262 -5.05234 -2.7075 3.08621e-06 -3.54014
474 1 24.9878 -3.30293 -0.9 2.95311e-06 -3.54013
475 1 24.5495 -1.55289 0.9075 2.8638e-06 -3.54013
476 1 24.1111 0.197786 2.715 2.82319e-06 -3.54012
477 1 26.7414 -2.85475 -2.7075 2.57838e-06 -3.54014
478 1 26.303 -1.10434 -0.9 2.51562e-06 -3.54014
479 1 25.8646 0.646697 0.9075 2.4879e-06 -3.54013
480 1 25.4262 2.39838 2.715 2.49926e-06 -3.54012
481 1 28.0565 -0.656393 -2.7075 2.18281e-06 -3.54015
482 1 27.6181 1.09496 -0.9 2.1632e-06 -3.54014
483 1 27.1798 2.84693 0.9075 2.17251e-06 -3.54013
484 1 26.7414 4.59954 2.715 2.21466e-06 -3.54013
485 1 29.3717 1.54261 -2.7075 1.86166e-06 -3.54015
486 1 28.9333 3.29483 -0.9 1.86889e-06 -3.54014
487 1 28.4949 5.04766 0.9075 1.90141e-06 -3.54014
488 1 28.0565 6.80113 2.715 1.96373e-06 -3.54013
489 1 30.6868 3.74213 -2.7075 1.59546e-06 -3.54015
490 1 30.2484 5.49515 -0.9 1.62086e-06 -3.54014
491 1 29.8101 7.24876 0.9075 1.67017e-06 -3.54014
492 1 29.3717 9.00301 2.715 1.74874e-06 -3.54013
493 1 32.002 5.94204 -2.7075 1.37491e-06 -3.54015
494 1 31.5636 7.69577 -0.9 1.41458e-06 -3.54015
495 1 31.1252 9.45009 0.9075 1.47822e-06 -3.54014
496 1 30.6868 11.205 2.715 1.5716e-06 -3.54018
497 1 33.3171 8.14219 -2.7075 1.19499e-06 -3.54015
498 1 32.8787 9.89656 -0.9 1.24708e-06 -3.54015
499 1 32.4404 11.6515 0.9075 1.3233e-06 -3.54032
500 1 32.002 13.407 2.715 2.45003e-05 -3.54071
501 1 34.6323 10.3425 -2.7075 1.05104e-06 -3.54016
502 1 34.1939 12.0974 -0.9 1.11351e-06 -3.54048
503 1 33.7555 13.8528 0.9075 6.37552e-05 -3.54051
504 1 35.9474 12.5428 -2.7075 9.6324e-07 -3.54063
505 1 35.509 14.2981 -0.9 0.00011792 -3.54035
506 1 18.4121 -14.28 2.715 0.000242255 -3.53941
507 1 20.1656 -13.8317 0.9075 5.6574e-05 -3.53916
508 1 19.7272 -12.0874 2.715 7.51309e-06 -3.53975
509 1 22.3575 14.6814 -2.7075 0.000731982 -3.54007
510 1 21.9192 -13.3841 -0.9 7.73467e-06 -3.53905
511 1 21.4808 -11.6389 0.9075 6.27682e-06 -3.54002
512 1 21.0424 -9.89308 2.715 5.55903e-06 -3.54009
513 1 23.6727 -12.937 -2.7075 5.7367e-06 -3.53929
514 1 23.2343 -11.1911 -0.9 5.24464e-06 -3.54011
515 1 22.7959 -9.44458 0.9075 4.7665e-06 -3.54011
516 1 22.3575 -7.69745 2.715 4.33901e-06 -3.54011
517 1 24.9878 -10.7439 -2.7075 4.38261e-06 -3.54012
518 1 24.5495 -8.99672 -0.9 4.0659e-06 -3.54013
519 1 24.1111 -7.249 0.9075 3.77507e-06 -3.54013
520 1 23.6727 -5.50068 2.715 3.52864e-06 -3.54013
521 1 26.303 -8.54941 -2.7075 3.45332e-06 -3.54014
522 1 25.8646 -6.80115 -0.9 3.25633e-06 -3.54014
523 1 25.4262 -5.05234 0.9075 3.08621e-06 -3.54014
524 1 24.9878 -3.30293 2.715 2.95311e-06 -3.54013
525 1 27.6181 -6.35387 -2.7075 2.78913e-06 -3.54015
526 1 27.1798 -4.60459 -0.9 2.67158e-06 -3.54015
527 1 26.7414 -2.85475 0.9075 2.57838e-06 -3.54014
528 1 26.303 -1.10434 2.715 2.51562e-06 -3.54014
529 1 28.9333 -4.15739 -2.7075 2.29358e-06 -3.54016
530 1 28.4949 -2.40717 -0.9 2.22765e-06 -3.54015
531 1 28.0565 -0.656393 0.9075 2.18281e-06 -3.54015
532 1 27.6181 1.09496 2.715 2.1632e-06 -3.54014
533 1 30.2484 -1.96013 -2.7075 1.90885e-06 -3.54016
534 1 29.8101 -0.20903 -0.9 1.8761e-06 -3.54016
535 1 29.3717 1.54261 0.9075 1.86166e-06 -3.54015
536 1 28.9333 3.29483 2.715 1.86889e-06 -3.54014
537 1 31.5636 0.237785 -2.7075 1.60094e-06 -3.54016
538 1 31.1252 1.98969 -0.9 1.58992e-06 -3.54016
539 1 30.6868 3.74213 0.9075 1.59546e-06 -3.54015
540 1 30.2484 5.49515 2.715 1.62086e-06 -3.54014
541 1 32.8787 2.43622 -2.7075 1.35039e-06 -3.54016
542 1 32.4404 4.18886 -0.9 1.3547e-06 -3.54016
543 1 32.002 5.94204 0.9075 1.37491e-06 -3.54015
544 1 31.5636 7.69577 2.715 1.41458e-06 -3.54015
545 1 34.1939 4.63506 -2.7075 1.14616e-06 -3.54017
546 1 33.7555 6.38837 -0.9 1.16258e-06 -3.54016
547 1 33.3171 8.14219 0.9075 1.19499e-06 -3.54015
548 1 32.8787 9.89656 2.715 1.24708e-06 -3.54015
549 1 35.509 6.83418 -2.7075 9.81262e-07 -3.54017
550 1 35.0707 8.58808 -0.9 1.00808e-06 -3.54016
551 1 34.6323 10.3425 0.9075 1.05104e-06 -3.54016
552 1 34.1939 12.0974 2.715 1.11351e-06 -3.54048
553 1 36.8242 9.03346 -2.7075 8.50026e-07 -3.54017
554 1 36.3858 10.7879 -0.9 8.85656e-07 -3.54016
555 1 35.9474 12.5428 0.9075 9.6324e-07 -3.54063
556 1 35.509 14.2981 2.715 0.00011792 -3.54035
557 1 38.1393 11.2328 -2.7075 7.46617e-07 -3.5402
558 1 37.7009 12.9877 -0.9 3.61809e-06 -3.54068
559 1 39.4545 13.4321 -2.7075 1.24093e-05 -3.54057
560 1 22.3575 14.6814 0.9075 0.000731982 -3.54007
561 1 21.9192 -13.3841 2.715 7.73467e-06 -3.53905
562 1 24.1111 -14.6825 -0.9 0.000334608 -3.53983
563 1 23.6727 -12.937 0.9075 5.7367e-06 -3.53929
564 1 23.2343 -11.1911 2.715 5.24464e-06 -3.54011
565 1 25.8646 -14.2367 -2.7075 0.000126817 -3.53968
566 1 25.4262 -12.4905 -0.9 4.69786e-06 -3.53965
567 1 24.9878 -10.7439 0.9075 4.38261e-06 -3.54012
568 1 24.5495 -8.99672 2.715 4.0659e-06 -3.54013
569 1 27.1798 -12.0444 -2.7075 3.8638e-06 -3.53992
570 1 26.7414 -10.2972 -0.9 3.66242e-06 -3.54014
571 1 26.303 -8.54941 0.9075 3.45332e-06 -3.54014
572 1 25.8646 -6.80115 2.715 3.25633e-06 -3.54014
573 1 28.4949 -9.85092 -2.7075 3.06063e-06 -3.54015
574 1 28.0565 -8.10263 -0.9 2.92259e-06 -3.54015
575 1 27.6181 -6.35387 0.9075 2.78913e-06 -3.54015
576 1 27.1798 -4.60459 2.715 2.67158e-06 -3.54015
577 1 29.8101 -7.65632 -2.7075 2.46633e-06 -3.54016
578 1 29.3717 -5.9071 -0.9 2.3754e-06 -3.54016
579 1 28.9333 -4.15739 0.9075 2.29358e-06 -3.54016
580 1 28.4949 -2.40717 2.715 2.22765e-06 -3.54015
581 1 31.1252 -5.46081 -2.7075 2.01398e-06 -3.54016
582 1 30.6868 -3.71071 -0.9 1.95626e-06 -3.54016
583 1 30.2484 -1.96013 0.9075 1.90885e-06 -3.54016
584 1 29.8101 -0.20903 2.715 1.8761e-06 -3.54016
585 1 32.4404 -3.26451 -2.7075 1.66025e-06 -3.54017
586 1 32.002 -1.5136 -0.9 1.62544e-06 -3.54017
587 1 31.5636 0.237785 0.9075 1.60094e-06 -3.54016
588 1 31.1252 1.98969 2.715 1.58992e-06 -3.54016
589 1 33.7555 -1.06757 -2.7075 1.37774e-06 -3.54017
590 1 33.3171 0.684088 -0.9 1.35899e-06 -3.54017
591 1 32.8787 2.43622 0.9075 1.35039e-06 -3.54016
592 1 32.4404 4.18886 2.715 1.3547e-06 -3.54016
593 1 35.0707 1.12991 -2.7075 1.14943e-06 -3.54017
594 1 34.6323 2.88225 -0.9 1.14266e-06 -3.54017
595 1 34.1939 4.63506 0.9075 1.14616e-06 -3.54017
596 1 33.7555 6.38837 2.715 1.16258e-06 -3.54016
597 1 36.3858 3.3278 -2.7075 9.64637e-07 -3.54018
598 1 35.9474 5.08076 -0.9 9.6764e-07 -3.54017
599 1 35.509 6.83418 0.9075 9.81262e-07 -3.54017
600 1 35.0707 8.58808 2.715 1.00808e-06 -3.54016
601 1 37.701 5.52599 -2.7075 8.16113e-07 -3.54018
602 1 37.2626 7.2795 -0.9 8.27615e-07 -3.54017
603 1 36.8242 9.03346 0.9075 8.50026e-07 -3.54017
604 1 36.3858 10.7879 2.715 8.85656e-07 -3.54016