LAMMPS data file via write_data, version 29 Aug 2024, timestep = 1082, units = metal

3190 atoms
2 atom types

-100.1 100.1 xlo xhi
-13.03406325 13.03406325 ylo yhi
-3.615 3.615 zlo zhi
0 0 0 xy xz yz

Masses

1 63.55
2 63.55

Atoms # atomic

1 2 -0.25565671208785545 6.733314919008224 -1.5829090880895218 0 0 0
2 1 0.7541753018966517 8.396648793449318 -3.3904090860474114 0 0 0
3 1 0.6125599488250515 11.164122751764653 -3.3904090866107346 0 0 0
4 1 0.35589022730579245 -12.97098953356388 -1.5829090841241928 0 0 0
5 1 0.16647388441575117 -6.663643385745069 -3.390409085446913 0 0 0
6 2 3.20990752842404 -4.662082478845482 0.2245909169971616 0 0 0
7 2 2.5176642051566063 -0.7254046701201844 -1.5829090830568977 0 0 0
8 2 -0.3882955157083643 0.35388601261343666 0.22459091090320754 0 0 0
9 2 0.6834912057461224 1.8020064100274578 -1.5829090855264083 0 0 0
10 2 3.2099075281603433 -4.66208247851179 -3.390409083481069 0 0 1
11 2 0.5030827510067866 4.318698297077164 -1.5829090849401029 0 0 0
12 2 1.6086721097872498 5.725498273223687 0.22459091617803045 0 0 0
13 2 -0.2556567120911808 6.733314919057959 2.0320909120744957 0 0 0
14 2 3.2415061135465493 4.549038393993408 -1.5829090808316681 0 0 0
15 1 2.020545605462601 7.290398184535023 -1.5829090830247978 0 0 0
16 1 0.7541753018574013 8.396648793512783 0.22459091402586912 0 0 0
17 1 3.254720943864001 8.362885463324014 -3.3904090809329266 0 0 0
18 1 1.9491748028568878 9.839704785531803 -1.5829090834091077 0 0 0
19 1 0.6125599488079843 11.164122751794933 0.22459091365613348 0 0 0
20 1 0.3558902279252294 -12.970989533708167 2.032090915928894 0 0 0
21 1 3.4958774556326944 10.8538088470906 -3.3904090805683658 0 0 0
22 1 2.617194694954037 12.298947108255634 -1.5829090810194426 0 0 0
23 1 1.752548588748212 -12.161729255531236 -3.3904090830526923 0 0 0
24 1 0.6478354017263541 -10.495071950219373 -1.5829090875154403 0 0 0
25 1 2.1031809436309885 -9.623004255978637 -3.390409084700891 0 0 0
26 1 1.075975243375936 -8.099277179310919 -1.5829090859920776 0 0 0
27 1 0.16647388417472087 -6.663643385585933 0.22459091450965113 0 0 0
28 1 2.65596635991983 -7.154795032931509 -3.390409083432385 0 0 0
29 2 0.8002635221740064 -4.2782208858777455 0.22459091407459247 0 0 0
30 2 2.0844574360929613 -3.161420884515735 2.032090915301253 0 0 0
31 2 1.6663104307000367 -5.681291806094817 -1.5829090849172476 0 0 0
32 2 0.8375012620172271 -1.7921931383100347 0.22459091394787883 0 0 0
33 2 2.5176642051569615 -0.7254046694561662 2.032090916821532 0 0 0
34 2 -0.3882955170652167 0.3538860124606096 -3.3904090889303067 0 0 1
35 2 2.0844574362435395 -3.1614208838369304 -1.5829090846676401 0 0 0
36 2 1.9193469634892182 0.7336661667853228 0.22459091689466115 0 0 0
37 2 0.6834912061796103 1.8020064098128135 2.032090914495905 0 0 0
38 2 0.8002635227240233 -4.278220886155028 -3.39040908674743 0 0 1
39 1 4.249730418625077 0.34498631533955404 -3.390409080109669 0 0 0
40 2 3.193577488529897 1.8961744540611054 -1.5829090811465443 0 0 0
41 2 0.5030827510514655 4.318698297346524 2.0320909149475845 0 0 0
42 2 1.6086721098310761 5.725498273123629 -3.390409084008245 0 0 1
43 1 4.514997833697862 2.9366394818191086 -3.3904090793731596 0 0 0
44 2 1.9430158125456387 3.238858808788903 0.22459091734428463 0 0 0
45 2 3.241506113403588 4.5490383943883845 2.032090919414887 0 0 0
46 1 2.020545605589959 7.2903981845619565 2.0320909168876216 0 0 0
47 1 4.983063289198512 5.373214492741413 -3.3904090778310922 0 0 0
48 1 4.310541506002167 6.871039898877045 -1.5829090777026256 0 0 0
49 1 3.2547209438549345 8.362885463425341 0.2245909191292043 0 0 0
50 1 1.9491748026096616 9.839704785635314 2.0320909166133894 0 0 0
51 1 5.7125241188272184 7.886035878975681 -3.39040907690745 0 0 0
52 1 4.601326816940116 9.411810881284163 -1.5829090790432396 0 0 0
53 1 3.4958774556357355 10.853808847137985 0.22459091958335495 0 0 0
54 1 2.6171946947053186 12.29894710817977 2.032090919134271 0 0 0
55 1 6.089488996151559 10.397230684545969 -3.390409076874232 0 0 0
56 1 5.1106413161055 11.876667217707409 -1.582909077724147 0 0 0
57 1 6.641218217708996 12.888162244666853 -3.3904090763182677 0 0 0
58 1 1.7525485885164187 -12.16172925552328 0.22459091702586664 0 0 0
59 1 0.6478354017045689 -10.495071950001897 2.032090912385753 0 0 0
60 1 4.157207230955535 -12.714597688075177 -3.390409079335028 0 0 0
61 1 3.1400903384109995 -11.178599829020872 -1.5829090820638931 0 0 0
62 1 2.103180943523654 -9.623004255724755 0.22459091508828397 0 0 0
63 1 1.0759752431922323 -8.09927717958202 2.0320909141512473 0 0 0
64 1 4.616394006921169 -10.178443222274916 -3.390409080620687 0 0 0
65 1 3.6114834380339857 -8.664483054185123 -1.5829090826107406 0 0 0
66 1 2.655966359878178 -7.1547950331384795 0.2245909159580184 0 0 0
67 2 3.550919260262546 -2.133247019557304 -3.390409082607715 0 0 1
68 1 5.144695336493214 -7.6722822755098345 -3.3904090809757133 0 0 0
69 1 4.167630738675115 -6.165372870132423 -1.5829090821699934 0 0 0
70 2 1.6663104306808378 -5.681291805421407 2.032090915331828 0 0 0
71 2 0.8375012619723634 -1.7921931384191954 -3.3904090858137 0 0 1
72 1 5.667295887301734 -5.157012509741387 -3.3904090803203744 0 0 0
73 1 4.62349355774154 -3.6337583296332276 -1.5829090814152171 0 0 0
74 2 3.5509192604346964 -2.1332470195481097 0.2245909169982621 0 0 0
75 2 1.9193469639499483 0.7336661670900906 -3.3904090839105954 0 0 1
76 1 6.104781362322569 -2.635534980606911 -3.3904090795658104 0 0 0
77 1 5.1061259016007625 -1.146169669385733 -1.5829090802915617 0 0 0
78 1 4.249730418136494 0.34498631560813386 0.22459092005440387 0 0 0
79 2 3.1935774879997325 1.8961744539090049 2.0320909187791902 0 0 0
80 1 6.670263219609026 -0.14150043555224023 -3.3904090777164977 0 0 0
81 1 5.647462063852032 1.3907138185285515 -1.582909078686199 0 0 0
82 1 4.514997833804088 2.936639481893895 0.22459092044983528 0 0 0
83 2 1.9430158126417183 3.238858808823478 -3.3904090830862703 0 0 1
84 1 7.0653378593472524 2.3973494881217583 -3.3904090764130372 0 0 0
85 1 5.986096234801451 3.912741760673006 -1.582909077368446 0 0 0
86 1 4.983063289216119 5.373214492841798 0.2245909222216598 0 0 0
87 1 4.310541505830443 6.871039898775054 2.0320909222955357 0 0 0
88 1 7.563049634666669 4.874748964813195 -3.3904090747996527 0 0 0
89 1 6.685059021681113 6.359041442232103 -1.5829090754999176 0 0 0
90 1 5.712524118807522 7.886035878856864 0.22459092362465977 0 0 0
91 1 4.601326816797354 9.411810881522323 2.0320909209607843 0 0 0
92 1 8.17062627623956 7.376261105962422 -3.3904090738701838 0 0 0
93 1 7.135454276815565 8.894343246723432 -1.5829090751338752 0 0 0
94 1 6.08948899645317 10.397230684540906 0.2245909233371494 0 0 0
95 1 5.110641315691552 11.876667217822218 2.0320909220099703 0 0 0
96 1 8.622671606458738 9.891333903732482 -3.3904090730995233 0 0 0
97 1 7.623126613451362 11.3907875228309 -1.5829090746468824 0 0 0
98 1 6.641218217607815 12.888162244703539 0.22459092372992467 0 0 0
99 1 9.139656820530305 12.392334144905265 -3.39040907291896 0 0 0
100 1 4.157207231081983 -12.714597688161842 0.2245909205274451 0 0 0
101 1 3.1400903379477114 -11.178599828611054 2.0320909182206406 0 0 0
102 1 5.636254934474181 -11.681035847539855 -1.5829090781321353 0 0 0
103 1 4.616394006882743 -10.178443222225347 0.22459091958856361 0 0 0
104 1 3.6114834375019598 -8.664483053962568 2.0320909174808697 0 0 0
105 1 7.131845292908395 -10.670581446100725 -3.390409076917211 0 0 0
106 1 6.127222742447245 -9.172437905174604 -1.5829090790309934 0 0 0
107 1 5.144695336333115 -7.67228227557408 0.22459091919612223 0 0 0
108 1 4.167630738488498 -6.1653728704492705 2.032090917710844 0 0 0
109 1 7.645178536294836 -8.167216740263461 -3.3904090776764866 0 0 0
110 1 6.656675827412016 -6.665892034545225 -1.5829090789146376 0 0 0
111 1 5.667295887260778 -5.157012509728613 0.22459091965827654 0 0 0
112 1 4.623493558222478 -3.633758329862699 2.032090918396726 0 0 0
113 1 8.153574789276675 -5.655980309573662 -3.390409076872663 0 0 0
114 1 7.134504833537889 -4.144810266025422 -1.5829090786089657 0 0 0
115 1 6.104781362545509 -2.635534980689 0.22459092066100486 0 0 0
116 1 5.106125901520457 -1.1461696694656673 2.032090920068249 0 0 0
117 1 8.62736614360297 -3.142831197798369 -3.39040907587733 0 0 0
118 1 7.627848255763723 -1.6427042303749566 -1.5829090767559961 0 0 0
119 1 6.670263220109945 -0.14150043549308933 0.22459092219799004 0 0 0
120 1 5.647462063958585 1.390713818833385 2.0320909216425953 0 0 0
121 1 9.144235025502724 -0.6383367996995748 -3.3904090744227022 0 0 0
122 1 8.12941541366682 0.8767069859516123 -1.582909075224666 0 0 0
123 1 7.065337859561268 2.3973494883449042 0.22459092377670312 0 0 0
124 1 5.98609623514659 3.912741760842449 2.0320909227079453 0 0 0
125 1 9.59507474662685 1.8817685754121438 -3.390409072838097 0 0 0
126 1 8.557737076250277 3.3879979972449714 -1.582909073994918 0 0 0
127 1 7.5630496347259 4.874748964888282 0.22459092500617728 0 0 0
128 1 6.685059021946458 6.3590414420425265 2.0320909245059933 0 0 0
129 1 10.09810473525468 4.374657624657667 -3.3904090711322747 0 0 0
130 1 9.143866373587144 5.8678731200486975 -1.582909072210603 0 0 0
131 1 8.170626276273723 7.3762611059565995 0.2245909264042511 0 0 0
132 1 7.135454277077756 8.894343246913332 2.0320909248155874 0 0 0
133 1 10.652297831281189 6.875998028461472 -3.390409070168384 0 0 0
134 1 9.643416593667524 8.385027459781975 -1.5829090717733083 0 0 0
135 1 8.622671606448932 9.891333903657285 0.22459092663217128 0 0 0
136 1 7.623126613674586 11.390787522561462 2.032090925526471 0 0 0
137 1 11.13753185818942 9.387154130887376 -3.390409069478765 0 0 0
138 1 10.134075953499433 10.890072890582397 -1.5829090712972642 0 0 0
139 1 9.139656820572966 12.39233414476765 0.22459092726518565 0 0 0
140 1 11.643514132941874 11.891765001355742 -3.3904090694431517 0 0 0
141 1 5.6362549344649295 -11.68103584771434 2.0320909219245027 0 0 0
142 1 8.140369994886811 -12.172239457320185 -1.58290907487813 0 0 0
143 1 7.131845292737566 -10.67058144603295 0.2245909227052548 0 0 0
144 1 6.127222742575853 -9.172437905348124 2.0320909211991043 0 0 0
145 1 9.641321286079304 -11.168698203603446 -3.3904090734512256 0 0 0
146 1 8.639220222912158 -9.66684507083325 -1.582909075563322 0 0 0
147 1 7.645178536234113 -8.167216740267298 0.22459092249672122 0 0 0
148 1 6.656675827594896 -6.665892034429729 2.032090921002499 0 0 0
149 1 10.14870540801597 -8.663838179587446 -3.390409073633133 0 0 0
150 1 9.152918489075745 -7.161228084639399 -1.582909075102732 0 0 0
151 1 8.15357478942397 -5.655980309246349 0.22459092292205207 0 0 0
152 1 7.134504833905098 -4.144810265884685 2.0320909215909486 0 0 0
153 1 10.651627570754584 -6.154956750306613 -3.390409072953553 0 0 0
154 1 9.641646695719373 -4.648402632392278 -1.5829090745783478 0 0 0
155 1 8.627366143574292 -3.1428311974913044 0.2245909241602065 0 0 0
156 1 7.627848255972282 -1.6427042300679346 2.0320909230750774 0 0 0
157 1 11.139084784474804 -3.645186383399132 -3.3904090717996955 0 0 0
158 1 10.136048528235392 -2.1422522986443457 -1.5829090732491131 0 0 0
159 1 9.144235025547914 -0.6383367996032447 0.22459092585291862 0 0 0
160 1 8.129415413587651 0.876706986025102 2.032090924698847 0 0 0
161 1 11.63954030186494 -1.1378743035651215 -3.3904090701455885 0 0 0
162 1 10.627649949271785 0.37071918150984473 -1.5829090714916163 0 0 0
163 1 9.59507474652088 1.8817685752590148 0.2245909274384393 0 0 0
164 1 8.557737076384171 3.38799799774411 2.032090925989475 0 0 0
165 1 12.114670319058888 1.37430726426855 -3.390409068415363 0 0 0
166 1 11.095754478335664 2.8783669830073926 -1.5829090697950978 0 0 0
167 1 10.098104735365126 4.374657624450725 0.22459092862623933 0 0 0
168 1 9.14386637413439 5.867873120034622 2.0320909276267467 0 0 0
169 1 12.617848217526813 3.8738783552282303 -3.3904090662831083 0 0 0
170 1 11.635771585955126 5.372278932528461 -1.582909068364767 0 0 0
171 1 10.652297831200215 6.875998028388954 0.22459093009659312 0 0 0
172 1 9.643416594007348 8.385027460112008 2.0320909282305872 0 0 0
173 1 13.147216628876237 6.376291538317888 -3.3904090654430195 0 0 0
174 1 12.146377382560601 7.88175448110451 -1.5829090676608744 0 0 0
175 1 11.137531858241033 9.387154130496471 0.22459093028209104 0 0 0
176 1 10.13407595367309 10.890072890801877 2.0320909286481963 0 0 0
177 1 13.645898279869172 8.884777241154845 -3.3904090651664944 0 0 0
178 1 12.642815882832366 10.388513785021177 -1.5829090674520854 0 0 0
179 1 11.64351413288179 11.89176500135318 0.22459093028284158 0 0 0
180 1 14.149105184973877 11.390680987495907 -3.3904090661984796 0 0 0
181 1 13.148837464196049 12.894432703380206 -1.5829090681842333 0 0 0
182 1 8.140369994861643 -12.172239457124423 2.032090925062865 0 0 0
183 1 10.644116166452378 -12.672514365605648 -1.582909071644246 0 0 0
184 1 9.641321285879258 -11.168698203624706 0.224590925953251 0 0 0
185 1 8.63922022316845 -9.666845071163454 2.0320909244882763 0 0 0
186 1 12.1476741797821 -11.669787238539477 -3.390409070195632 0 0 0
187 1 11.14669748032064 -10.166373633229602 -1.582909072101928 0 0 0
188 1 10.148705408162698 -8.66383817985135 0.22459092620718238 0 0 0
189 1 9.1529184889487 -7.161228084376653 2.032090924389047 0 0 0
190 1 12.652589856745294 -9.163667340542313 -3.3904090706307057 0 0 0
191 1 11.653409518168559 -7.659862538873873 -1.5829090720758459 0 0 0
192 1 10.651627571181422 -6.1549567501794105 0.22459092681329054 0 0 0
193 1 9.641646695802592 -4.648402632306569 2.0320909255031405 0 0 0
194 1 13.153649705032862 -6.6554901637830355 -3.3904090702302767 0 0 0
195 1 12.147467047308723 -5.150072164625546 -1.5829090711331304 0 0 0
196 1 11.139084784093043 -3.6451863832060294 0.2245909279719023 0 0 0
197 1 10.13604852880269 -2.1422522987867545 2.032090927254431 0 0 0
198 1 13.646691975194543 -4.146799426953045 -3.3904090687720045 0 0 0
199 1 12.641986965579676 -2.642588335208961 -1.5829090693525008 0 0 0
200 1 11.63954030176319 -1.1378743034856527 0.22459092986189985 0 0 0
201 1 10.62764994948634 0.3707191812164492 2.0320909287541196 0 0 0
202 1 14.142488685408168 -1.6388665775434177 -3.3904090662047106 0 0 0
203 1 13.13278853531476 -0.1326248349188095 -1.5829090671915824 0 0 0
204 1 12.114670318954907 1.374307264360013 0.2245909316569896 0 0 0
205 1 11.095754478428262 2.8783669831123255 2.0320909303217394 0 0 0
206 1 14.628983036618976 0.8700538026022304 -3.3904090632634234 0 0 0
207 1 13.618160184136457 2.3737241916756204 -1.582909064700689 0 0 0
208 1 12.61784821741827 3.8738783553091967 0.22459093345697495 0 0 0
209 1 11.63577158606546 5.372278932699819 2.032090931661834 0 0 0
210 1 15.131597092037921 3.3726988058405087 -3.3904090616392404 0 0 0
211 1 14.138490470563568 4.87359659403136 -1.582909063190344 0 0 0
212 1 13.147216628993263 6.376291537910367 0.22459093455421214 0 0 0
213 1 12.146377382450908 7.881754481582648 2.03209093243689 0 0 0
214 1 15.64872602485309 5.876200636593856 -3.39040906024038 0 0 0
215 1 14.649511956475166 7.380257023036963 -1.5829090628108151 0 0 0
216 1 13.64589828004543 8.884777240820513 0.2245909348457191 0 0 0
217 1 12.642815882535615 10.388513784998255 2.0320909323202527 0 0 0
218 1 16.15218486142838 8.383239916603737 -3.3904090606935524 0 0 0
219 1 15.149988535925871 9.887085946655928 -1.582909063293566 0 0 0
220 1 14.149105185162284 11.390680987418309 0.2245909338200346 0 0 0
221 1 13.148837464033434 12.894432703033333 2.032090931686397 0 0 0
222 1 16.65505963350533 10.889538230994392 -3.390409061291278 0 0 0
223 1 15.654188470961031 12.393281861170623 -1.5829090640378354 0 0 0
224 1 10.644116166638184 -12.672514365921913 2.0320909284337887 0 0 0
225 1 12.147674179681019 -11.669787238429018 0.22459092937081335 0 0 0
226 1 11.14669748023151 -10.166373633858916 2.032090927670571 0 0 0
227 1 14.653231991031106 -12.171008011109215 -3.3904090665475475 0 0 0
228 1 13.652386761356539 -10.667247962378777 -1.5829090689579715 0 0 0
229 1 12.65258985669773 -9.163667340452541 0.2245909293700227 0 0 0
230 1 11.6534095180358 -7.659862538506176 2.0320909278926886 0 0 0
231 1 15.15685156548902 -9.664392381775205 -3.3904090670183256 0 0 0
232 1 14.156058719466188 -8.1602524593362 -1.5829090688453347 0 0 0
233 1 13.153649705093898 -6.655490163904114 0.22459093007960254 0 0 0
234 1 12.147467047313043 -5.150072164182059 2.0320909290063445 0 0 0
235 1 15.657298231462093 -7.156588892490954 -3.3904090666485285 0 0 0
236 1 14.652702568926841 -5.651638571986887 -1.5829090678808715 0 0 0
237 1 13.646691974966387 -4.14679942719121 0.22459093144853548 0 0 0
238 1 12.641986965381705 -2.642588334968112 2.032090930577601 0 0 0
239 1 16.152918711296948 -4.648396711371284 -3.3904090645688356 0 0 0
240 1 15.147797408311035 -3.143774493549829 -1.5829090656217764 0 0 0
241 1 14.14248868517548 -1.638866577721414 0.22459093370503944 0 0 0
242 1 13.132788535554852 -0.1326248352467747 2.032090932671925 0 0 0
243 1 16.64814814494622 -2.1405094028003244 -3.3904090619972433 0 0 0
244 1 15.640252547915082 -0.6352499942341954 -1.5829090625852926 0 0 0
245 1 14.628983036615196 0.870053802651384 0.22459093652397952 0 0 0
246 1 13.618160184024305 2.3737241913030562 2.032090935071309 0 0 0
247 1 17.14041244497311 0.36707853569324556 -3.3904090589395186 0 0 0
248 1 16.13330662081303 1.870762807590328 -1.5829090597722246 0 0 0
249 1 15.13159709199131 3.372698806129554 0.22459093862597104 0 0 0
250 1 14.138490470237059 4.873596593765447 2.0320909368695244 0 0 0
251 1 17.64252362737372 2.871286545241393 -3.390409056496093 0 0 0
252 1 16.644640362997393 4.373463777240561 -1.5829090582090777 0 0 0
253 1 15.648726025145876 5.8762006364441834 0.22459093981350378 0 0 0
254 1 14.64951195663484 7.380257023025793 2.0320909371407057 0 0 0
255 1 18.15325765911298 5.375636370894698 -3.390409055479675 0 0 0
256 1 17.15379641118527 6.879233698976458 -1.5829090576471054 0 0 0
257 1 16.152184861593966 8.383239916849528 0.22459093927169924 0 0 0
258 1 15.149988536081423 9.887085946639141 2.032090936618047 0 0 0
259 1 18.657997285606086 7.882008708664673 -3.390409056079203 0 0 0
260 1 17.656368835735066 9.385819115341812 -1.582909058283325 0 0 0
261 1 16.655059633711062 10.889538231145439 0.22459093877113054 0 0 0
262 1 15.654188470742852 12.393281861025722 2.0320909358196544 0 0 0
263 1 19.161027913672413 10.38838865477515 -3.3904090563438727 0 0 0
264 1 18.1598133801116 11.892162655782615 -1.58290905944624 0 0 0
265 1 19.664190812650816 12.894878715215627 -3.3904090565231995 0 0 0
266 1 14.653231991149397 -12.1710080108904 0.22459093355420492 0 0 0
267 1 13.65238676109513 -10.667247962783172 2.0320909310670254 0 0 0
268 1 17.158679368670846 -12.672138880194362 -3.390409061972857 0 0 0
269 1 16.157617134685438 -11.168283421283771 -1.5829090644393091 0 0 0
270 1 15.15685156543617 -9.664392381754775 0.22459093344970255 0 0 0
271 1 14.156058719452517 -8.160252459651765 2.032090931184947 0 0 0
272 1 17.661509777819404 -10.165358630791337 -3.3904090621261482 0 0 0
273 1 16.65992471562548 -8.661163989474742 -1.5829090646312747 0 0 0
274 1 15.657298231440691 -7.156588892781019 0.22459093364604163 0 0 0
275 1 14.652702568864228 -5.651638571857047 2.032090932115695 0 0 0
276 1 18.161791405669533 -7.65781781093678 -3.3904090616894806 0 0 0
277 1 17.157882809666503 -6.153139445274758 -1.582909063471518 0 0 0
278 1 16.152918710959597 -4.648396711549426 0.22459093516902146 0 0 0
279 1 15.147797408075036 -3.143774493364605 2.032090934389211 0 0 0
280 1 18.65882131750773 -5.149968452321441 -3.390409060044901 0 0 0
281 1 17.65383933546414 -3.6453210637769384 -1.5829090611089511 0 0 0
282 1 16.64814814476503 -2.140509402820019 0.22459093834742433 0 0 0
283 1 15.640252547678784 -0.6352499939399756 2.0320909371093006 0 0 0
284 1 19.154752557951014 -2.6423125407750234 -3.3904090572465395 0 0 0
285 1 18.148241495067808 -1.1375472153508621 -1.5829090581880318 0 0 0
286 1 17.14041244511118 0.3670785358835733 0.22459094104206687 0 0 0
287 1 16.13330662108669 1.87076280727665 2.032090940076676 0 0 0
288 1 19.65017402268326 -0.13528584256721565 -3.3904090548977663 0 0 0
289 1 18.644874321155342 1.3684675038697112 -1.582909055761279 0 0 0
290 1 17.642523627307995 2.8712865454396823 0.22459094326913295 0 0 0
291 1 16.64464036288075 4.373463777488089 2.032090942027222 0 0 0
292 1 20.151927295445873 2.369775690467092 -3.3904090529428137 0 0 0
293 1 19.151812263381444 3.8726404656189946 -1.5829090540801085 0 0 0
294 1 18.15325765923626 5.375636370862052 0.22459094456149714 0 0 0
295 1 17.15379641115807 6.879233699208866 2.0320909421040967 0 0 0
296 1 20.659130768037272 4.8747343427608545 -3.3904090518860692 0 0 0
297 1 19.65902991563243 6.378235633322356 -1.5829090538503758 0 0 0
298 1 18.657997285765475 7.882008708467955 0.2245909440112523 0 0 0
299 1 17.656368836222924 9.385819115422516 2.0320909415285615 0 0 0
300 1 21.163847786684386 7.380849613809636 -3.3904090514005323 0 0 0
301 1 20.162442896100117 8.884621969893738 -1.5829090536525385 0 0 0
302 1 19.16102791373278 10.388388654874534 0.22459094346694417 0 0 0
303 1 18.159813380320927 11.892162655962666 2.0320909407677776 0 0 0
304 1 21.666977193491988 9.887225346852427 -3.39040905094266 0 0 0
305 1 20.6655553072454 11.391032471268092 -1.58290905404312 0 0 0
306 1 19.66419081280752 12.894878714926948 0.22459094308518981 0 0 0
307 1 22.169802771938464 12.393747114578355 -3.39040905068754 0 0 0
308 1 17.15867936897088 -12.672138880302667 0.22459093825224202 0 0 0
309 1 16.157617134965193 -11.168283421888944 2.03209093558873 0 0 0
310 1 18.662846154233662 -11.669347106161892 -1.5829090594045916 0 0 0
311 1 17.661509777783948 -10.165358630818101 0.22459093802823818 0 0 0
312 1 16.65992471597825 -8.661163989435991 2.0320909355931245 0 0 0
313 1 20.16651116401721 -10.666427642807166 -3.3904090560728806 0 0 0
314 1 19.16451468978184 -9.162246133663478 -1.5829090589719943 0 0 0
315 1 18.16179140543322 -7.657817811070398 0.224590938635857 0 0 0
316 1 17.157882809276913 -6.153139444787515 2.0320909364599267 0 0 0
317 1 20.666799342079003 -8.15908402599529 -3.3904090552692954 0 0 0
318 1 19.663226410563198 -6.654580103769245 -1.582909057792704 0 0 0
319 1 18.658821317501037 -5.1499684524866485 0.22459094022506845 0 0 0
320 1 17.653839335469783 -3.645321063402511 2.032090938475477 0 0 0
321 1 21.164745594003364 -5.651504374392911 -3.390409054044726 0 0 0
322 1 20.160095321476348 -4.146952243214917 -1.5829090559688475 0 0 0
323 1 19.154752558053502 -2.642312540745241 0.22459094247078668 0 0 0
324 1 18.148241494686573 -1.1375472153232646 2.03209094155291 0 0 0
325 1 21.66164387035623 -3.1440924183539725 -3.3904090523056802 0 0 0
326 1 20.656151494510397 -1.6396050243425897 -1.5829090538179307 0 0 0
327 1 19.65017402254614 -0.13528584230708418 0.22459094508488717 0 0 0
328 1 18.644874321067775 1.368467503782096 2.0320909442696284 0 0 0
329 1 22.158916075949506 -0.6373119618325624 -3.390409050762664 0 0 0
330 1 21.154559818278287 0.8665001287903511 -1.5829090520412619 0 0 0
331 1 20.151927295515662 2.369775690686396 0.22459094698428905 0 0 0
332 1 19.151812262891724 3.872640465534557 2.0320909460636996 0 0 0
333 1 22.66043189971134 1.8682450768275682 -3.3904090491961187 0 0 0
334 1 21.65920383496085 3.371496441124089 -1.582909050570968 0 0 0
335 1 20.659130768040853 4.874734342969626 0.22459094849120378 0 0 0
336 1 19.659029915446112 6.378235633397805 2.0320909464754044 0 0 0
337 1 23.16558176752328 4.373629846417751 -3.3904090482301865 0 0 0
338 1 22.16487426206821 5.8771586227111765 -1.5829090494487172 0 0 0
339 1 21.163847786836754 7.380849613676682 0.22459094857303577 0 0 0
340 1 20.162442896687054 8.884621969658435 2.0320909463954453 0 0 0
341 1 23.669856019765888 6.8796819019185325 -3.390409046662458 0 0 0
342 1 22.66845556360245 8.383437994360337 -1.5829090488467803 0 0 0
343 1 21.66697719335947 9.887225346559903 0.2245909488780504 0 0 0
344 1 20.66555530721375 11.391032470944621 2.0320909461811225 0 0 0
345 1 24.17294316574136 9.386042878045638 -3.390409045733995 0 0 0
346 1 23.171369417784447 10.889875093991458 -1.5829090480489907 0 0 0
347 1 22.169802771928687 12.393747114410212 0.2245909492959692 0 0 0
348 1 24.67551924800614 11.892581124059861 -3.3904090450263786 0 0 0
349 1 18.66284615429454 -11.669347106069978 2.032090940475729 0 0 0
350 1 21.168207418975925 -12.170449171164089 -1.5829090533276986 0 0 0
351 1 20.166511163861017 -10.666427642861972 0.2245909440503522 0 0 0
352 1 19.164514689940276 -9.16224613374606 2.032090941005879 0 0 0
353 1 22.671790734953717 -11.167565472537108 -3.3904090500999784 0 0 0
354 1 21.669566780378318 -9.663410018003441 -1.582909052548273 0 0 0
355 1 20.666799342018905 -8.159084026000698 0.22459094457122977 0 0 0
356 1 19.663226410404278 -6.654580103746402 2.0320909420087463 0 0 0
357 1 23.17215496864725 -8.660374508597185 -3.3904090491926104 0 0 0
358 1 22.168781312814843 -7.155990657203423 -1.5829090515872473 0 0 0
359 1 21.16474559426908 -5.651504374479085 0.22459094609037195 0 0 0
360 1 20.160095321466727 -4.146952242942339 2.032090943876127 0 0 0
361 1 23.670774640980582 -6.153010820220045 -3.3904090478845696 0 0 0
362 1 22.666487019073855 -4.648572508972203 -1.5829090502118757 0 0 0
363 1 21.661643870227564 -3.1440924181473804 0.22459094736770255 0 0 0
364 1 20.656151494511633 -1.639605024358623 2.032090946212463 0 0 0
365 1 24.168574995719226 -3.645803569665418 -3.3904090469040375 0 0 0
366 1 23.163821767485018 -2.141482650517238 -1.5829090492191435 0 0 0
367 1 22.158916075719148 -0.637311961623583 0.22459094930719323 0 0 0
368 1 21.154559817933972 0.8665001290571137 2.032090948046351 0 0 0
369 1 24.667001825196053 -1.1391354482564662 -3.3904090459272624 0 0 0
370 1 23.663181376699825 0.3647200073503942 -1.5829090478156769 0 0 0
371 1 22.660431899673597 1.8682450769697674 0.22459095085165867 0 0 0
372 1 21.65920383509868 3.3714964411271975 2.0320909494672548 0 0 0
373 1 25.168367473359794 1.3667260536705133 -3.3904090455462086 0 0 0
374 1 24.166552640074798 2.870206682011025 -1.5829090466728801 0 0 0
375 1 23.165581767419795 4.373629846611271 0.2245909522306429 0 0 0
376 1 22.164874262387414 5.877158623300575 2.032090950650534 0 0 0
377 1 25.672264225831427 3.872409877230959 -3.390409044107691 0 0 0
378 1 24.671074823200627 5.376000860577365 -1.5829090454136594 0 0 0
379 1 23.66985601998242 6.879681901966217 0.22459095307915738 0 0 0
380 1 22.66845556412838 8.383437994346204 2.0320909513600145 0 0 0
381 1 26.176015473950258 6.378483100075906 -3.390409042366762 0 0 0
382 1 25.174509654847967 7.8822422749723575 -1.5829090440721745 0 0 0
383 1 24.172943165515534 9.386042877842359 0.22459095441251264 0 0 0
384 1 23.17136941764437 10.889875094092579 2.0320909520259867 0 0 0
385 1 26.678957185109567 8.884838814172378 -3.390409040891389 0 0 0
386 1 25.677251929584855 10.388689124310192 -1.582909042871065 0 0 0
387 1 24.67551924787918 11.89258112403502 0.22459095475849103 0 0 0
388 1 27.18133666357332 11.391382297985635 -3.390409040737232 0 0 0
389 1 26.17938794279553 12.89534077808534 -1.5829090425823358 0 0 0
390 1 21.16820741862766 -12.170449171445782 2.032090946537484 0 0 0
391 1 23.673724495671408 -12.671596724737448 -1.5829090474668328 0 0 0
392 1 22.671790734945844 -11.16756547242872 0.22459095002358634 0 0 0
393 1 21.66956678071101 -9.66341001783052 2.032090947262646 0 0 0
394 1 25.177292387067908 -11.668755458742131 -3.3904090445638007 0 0 0
395 1 24.17493610281582 -10.164627179503821 -1.582909046868669 0 0 0
396 1 23.172154968776923 -8.660374508653035 0.22459095092570774 0 0 0
397 1 22.168781312584755 -7.15599065720363 2.032090948573353 0 0 0
398 1 25.677760394719527 -9.16168579762482 -3.390409043392191 0 0 0
399 1 24.674529643139266 -7.65739039818874 -1.5829090455080295 0 0 0
400 1 23.670774640933303 -6.153010820386044 0.22459095201503523 0 0 0
401 1 22.666487018652646 -4.648572508950489 2.032090949711248 0 0 0
402 1 26.176907369690056 -6.654494101156085 -3.390409042270561 0 0 0
403 1 25.172950410113415 -5.150157118244542 -1.5829090446402163 0 0 0
404 1 24.168574995581352 -3.645803569635232 0.22459095293972592 0 0 0
405 1 23.163821767259634 -2.1414826506014055 2.032090950896543 0 0 0
406 1 26.675459153137666 -4.147445668710157 -3.3904090421339124 0 0 0
407 1 25.671242775462645 -2.64322953477736 -1.582909043788819 0 0 0
408 1 24.667001825035626 -1.1391354482277816 0.224590953711475 0 0 0
409 1 23.66318137674935 0.3647200073531174 2.0320909521101664 0 0 0
410 1 27.17464635118354 -1.6408309088866524 -3.390409041203176 0 0 0
411 1 26.17115701606025 -0.1369443584836727 -1.5829090432488722 0 0 0
412 1 25.16836747334935 1.3667260537522221 0.22459095464473602 0 0 0
413 1 24.166552640397157 2.870206682233544 2.032090953363246 0 0 0
414 1 27.675921929871862 0.8652271462048233 -3.390409040876125 0 0 0
415 1 26.673783198294004 2.368851210868508 -1.582909042855521 0 0 0
416 1 25.672264225821692 3.8724098772458166 0.22459095581744065 0 0 0
417 1 24.671074823134973 5.376000860749558 2.0320909545976336 0 0 0
418 1 28.179020925049173 3.371123969803703 -3.390409039875334 0 0 0
419 1 27.17747028598484 4.874780440074995 -1.582909041394822 0 0 0
420 1 26.176015473874997 6.378483100095162 0.22459095761592338 0 0 0
421 1 25.17450965496448 7.882242274784099 2.032090956204264 0 0 0
422 1 28.682289271274243 5.8772504873061475 -3.3904090384687957 0 0 0
423 1 27.680636561542002 7.38102498411463 -1.5829090395893168 0 0 0
424 1 26.678957184872232 8.884838814103437 0.22459095887835362 0 0 0
425 1 25.67725192951177 10.38868912434207 2.0320909568666408 0 0 0
426 1 29.185033708906616 8.383612158594852 -3.390409037425597 0 0 0
427 1 28.183206595610727 9.887476641236146 -1.582909038973341 0 0 0
428 1 27.181336663454047 11.391382297767821 0.22459095938681037 0 0 0
429 1 26.179387942868786 12.895340777995289 2.032090957412402 0 0 0
430 1 29.687248364507695 10.890154976886587 -3.390409036600439 0 0 0
431 1 28.685180334789948 12.394117626878307 -1.5829090381806399 0 0 0
432 1 23.67372449551202 -12.671596725078105 2.0320909525852184 0 0 0
433 1 25.177292386898586 -11.668755458883137 0.22459095542573534 0 0 0
434 1 24.17493610278997 -10.164627180143707 2.032090953340988 0 0 0