ITEM: TIMESTEP
0
ITEM: NUMBER OF ATOMS
3190
ITEM: BOX BOUNDS xy xz yz mm pp pp
-1.0009999999999999e+02 1.0009999999999999e+02 0.0000000000000000e+00
-1.3034063250000001e+01 1.3034063250000001e+01 0.0000000000000000e+00
-3.6150000000000002e+00 3.6150000000000002e+00 0.0000000000000000e+00
ITEM: ATOMS id type x y z c_csym c_energy
1 2 2.814e-07 6.93244 -1.8075 0.00010299 -3.54169
2 2 3.50917 -10.5479 -1.8075 8.90802 -1.13389
3 2 1.50393 12.4464 -1.8075 1.82334 -3.54432
4 2 3.50917 -10.5479 1.8075 8.90802 -1.13389
5 2 -2.814e-07 -6.10897 -1.8075 0.000134154 -3.54202
6 2 3.50917 -4.02141 -2.40807e-15 8.96444 -1.13232
7 2 1.50393 -0.550321 -1.8075 1.82251 -3.5505
8 2 -2.84217e-14 0.42456 -2.40807e-15 2.07354e-05 -3.54211
9 2 1.00262 1.94723 -1.8075 1.47664e-05 -3.54931
10 2 3.50917 2.49675 -1.8075 8.98221 -1.13227
11 2 0.50131 4.44205 -1.8075 3.80448e-05 -3.53585
12 2 1.50393 5.96317 -2.40807e-15 1.82256 -3.5502
13 2 2.814e-07 6.93244 1.8075 0.00010299 -3.54169
14 2 2.50655 7.48569 -1.8075 5.58702 -2.41076
15 2 1.00262 8.45158 -2.40807e-15 0.000188643 -3.54872
16 2 1.00262 -11.1475 1.8075 0.00598918 -3.55094
17 2 2.00524 9.97278 -1.8075 2.43792 -3.5479
18 2 0.501311 10.9304 -2.40807e-15 0.000629573 -3.53341
19 2 1.50393 12.4464 1.8075 1.82334 -3.54432
20 2 2.00524 -9.59198 3.615 2.44398 -3.55002
21 2 3.50917 9.0111 -2.40807e-15 9.00821 -1.13079
22 2 3.00786 11.4985 -2.40807e-15 9.63195 -2.54783
23 2 1.00262 -11.1475 -1.8075 0.00598918 -3.55094
24 2 5.628e-07 -12.6771 -2.40807e-15 0.00488821 -3.53773
25 2 0.50131 -8.62197 -1.8075 0.000476358 -3.53653
26 2 1.50393 -7.08262 -2.40807e-15 1.8227 -3.54926
27 2 -2.814e-07 -6.10897 1.8075 0.000134154 -3.54202
28 2 2.50655 -5.54965 -1.8075 5.57858 -2.40814
29 2 1.00262 -4.57755 -2.40807e-15 6.16965e-05 -3.54933
30 2 3.50917 -4.02141 3.615 8.96444 -1.13232
31 2 2.00524 -3.04955 -1.8075 2.46799 -3.54949
32 2 0.50131 -2.07522 -2.40807e-15 2.6509e-05 -3.536
33 2 1.50393 -0.550321 1.8075 1.82251 -3.5505
34 2 -2.84217e-14 0.42456 3.615 2.07354e-05 -3.54211
35 2 3.00786 -1.52403 -2.40807e-15 9.59969 -2.50852
36 2 2.50655 0.973411 -2.40807e-15 5.58591 -2.42403
37 2 1.00262 1.94723 1.8075 1.47664e-05 -3.54931
38 2 3.50917 2.49675 1.8075 8.98221 -1.13227
39 1 4.01048 -8.283e-07 -3.1575 8.79587 -1.44319
40 2 2.00524 3.46964 -2.40807e-15 2.46369 -3.54962
41 2 0.50131 4.44205 1.8075 3.80448e-05 -3.53585
42 2 1.50393 5.96317 3.615 1.82256 -3.5502
43 1 4.51179 2.51649 -3.1575 7.21203 -1.11554
44 2 3.00786 4.99258 -1.8075 9.60197 -2.50995
45 2 2.50655 7.48569 1.8075 5.58702 -2.41076
46 2 1.00262 8.45158 3.615 0.000188643 -3.54872
47 1 5.0131 5.03435 -3.1575 5.21547 -3.49189
48 1 4.01048 6.51706 -1.35 8.80507 -1.43214
49 2 2.00524 9.97278 1.8075 2.43792 -3.5479
50 2 0.501311 10.9304 3.615 0.000629573 -3.53341
51 1 5.51441 7.55573 -3.1575 1.47693 -3.56754
52 1 4.51179 9.0372 -1.35 7.21288 -1.11836
53 2 3.50917 9.0111 3.615 9.00821 -1.13079
54 2 3.00786 11.4985 3.615 9.63195 -2.54783
55 1 6.01572 10.085 -3.1575 2.51001 -3.55381
56 1 5.0131 11.5665 -1.35 5.23642 -3.49082
57 1 6.51703 12.6331 -3.1575 0.00476727 -3.53597
58 2 2.00524 -9.59198 -2.40807e-15 2.44398 -3.55002
59 2 5.628e-07 -12.6771 3.615 0.00488821 -3.53773
60 1 4.01048 13.034 -3.1575 8.82141 -1.36932
61 2 2.50655 -12.1017 -2.40807e-15 5.58737 -2.30991
62 2 0.50131 -8.62197 1.8075 0.000476358 -3.53653
63 2 1.50393 -7.08262 3.615 1.8227 -3.54926
64 1 4.51179 -10.5103 -3.1575 7.25408 -1.1202
65 2 3.00786 -8.04974 -1.8075 9.61404 -2.54027
66 2 2.50655 -5.54965 1.8075 5.57858 -2.40814
67 2 1.00262 -4.57755 3.615 6.16965e-05 -3.54933
68 1 5.0131 -7.99478 -3.1575 5.16222 -3.49107
69 1 4.01048 -6.51706 -1.35 8.78608 -1.45716
70 2 2.00524 -3.04955 1.8075 2.46799 -3.54949
71 2 0.50131 -2.07522 3.615 2.6509e-05 -3.536
72 1 5.51441 -5.48109 -3.1575 1.48767 -3.5678
73 1 4.51179 -4.00001 -1.35 7.21897 -1.11589
74 2 3.00786 -1.52403 3.615 9.59969 -2.50852
75 2 2.50655 0.973411 3.615 5.58591 -2.42403
76 1 6.01572 -2.96741 -3.1575 2.4766 -3.55359
77 1 5.0131 -1.4842 -1.35 5.20395 -3.49215
78 1 4.01048 -8.283e-07 0.4575 8.79587 -1.44319
79 2 2.00524 3.46964 3.615 2.46369 -3.54962
80 1 6.51703 -0.452773 -3.1575 9.20117e-06 -3.53411
81 1 5.51441 1.03187 -1.35 1.48254 -3.56829
82 1 4.51179 2.51649 0.4575 7.21203 -1.11554
83 2 3.00786 4.99258 1.8075 9.60197 -2.50995
84 1 7.01834 2.06375 -3.1575 1.94426e-05 -3.55165
85 1 6.01572 3.54953 -1.35 2.47922 -3.55349
86 1 5.0131 5.03435 0.4575 5.21547 -3.49189
87 1 4.01048 6.51706 2.265 8.80507 -1.43214
88 1 7.51965 4.58346 -3.1575 5.49401e-05 -3.53353
89 1 6.51703 6.07052 -1.35 8.93863e-05 -3.53407
90 1 5.51441 7.55573 0.4575 1.47693 -3.56754
91 1 4.51179 9.0372 2.265 7.21288 -1.11836
92 1 8.02096 7.10844 -3.1575 0.000153314 -3.53958
93 1 7.01834 8.59793 -1.35 0.000307264 -3.55107
94 1 6.01572 10.085 0.4575 2.51001 -3.55381
95 1 5.0131 11.5665 2.265 5.23642 -3.49082
96 1 8.52227 9.64228 -3.1575 0.000413328 -3.53873
97 1 7.51965 11.1378 -1.35 0.000731587 -3.53499
98 1 6.51703 12.6331 0.4575 0.00476727 -3.53597
99 1 9.02358 12.1906 -3.1575 0.00139811 -3.54357
100 1 4.01048 13.034 0.4575 8.82141 -1.36932
101 2 2.50655 -12.1017 3.615 5.58737 -2.30991
102 1 5.51441 -11.9664 -1.35 1.48151 -3.56163
103 1 4.51179 -10.5103 0.4575 7.25408 -1.1202
104 2 3.00786 -8.04974 1.8075 9.61404 -2.54027
105 1 7.01834 -10.9259 -3.1575 0.00100068 -3.54556
106 1 6.01572 -9.46538 -1.35 2.50347 -3.55293
107 1 5.0131 -7.99478 0.4575 5.16222 -3.49107
108 1 4.01048 -6.51706 2.265 8.78608 -1.45716
109 1 7.51965 -8.43088 -3.1575 0.000272219 -3.53309
110 1 6.51703 -6.95851 -1.35 0.000118496 -3.53404
111 1 5.51441 -5.48109 0.4575 1.48767 -3.5678
112 1 4.51179 -4.00001 2.265 7.21897 -1.11589
113 1 8.02097 -5.92736 -3.1575 8.75627e-05 -3.53968
114 1 7.01834 -4.44875 -1.35 4.01897e-05 -3.55155
115 1 6.01572 -2.96741 0.4575 2.4766 -3.55359
116 1 5.0131 -1.4842 2.265 5.20395 -3.49215
117 1 8.52228 -3.41916 -3.1575 4.01791e-05 -3.53979
118 1 7.51965 -1.93667 -1.35 2.02726e-05 -3.53362
119 1 6.51703 -0.452773 0.4575 9.20117e-06 -3.53411
120 1 5.51441 1.03187 2.265 1.48254 -3.56829
121 1 9.02359 -0.90738 -3.1575 2.94982e-05 -3.53989
122 1 8.02096 0.577896 -1.35 2.15142e-05 -3.53987
123 1 7.01834 2.06375 0.4575 1.94426e-05 -3.55165
124 1 6.01572 3.54953 2.265 2.47922 -3.55349
125 1 9.5249 1.60796 -3.1575 3.6391e-05 -3.53988
126 1 8.52227 3.09569 -1.35 4.03272e-05 -3.53979
127 1 7.51965 4.58346 0.4575 5.49401e-05 -3.53353
128 1 6.51703 6.07052 2.265 8.93863e-05 -3.53407
129 1 10.0262 4.12754 -3.1575 6.11845e-05 -3.5398
130 1 9.02359 5.61804 -1.35 8.92594e-05 -3.53969
131 1 8.02096 7.10844 0.4575 0.000153314 -3.53958
132 1 7.01834 8.59793 2.265 0.000307264 -3.55107
133 1 10.5275 6.65267 -3.1575 0.000112959 -3.53957
134 1 9.5249 8.14716 -1.35 0.000198545 -3.53934
135 1 8.52227 9.64228 0.4575 0.000413328 -3.53873
136 1 7.51965 11.1378 2.265 0.000731587 -3.53499
137 1 11.0288 9.18525 -3.1575 0.000196562 -3.53878
138 1 10.0262 10.6862 -1.35 0.000802188 -3.54014
139 1 9.02358 12.1906 0.4575 0.00139811 -3.54357
140 1 11.5301 11.7271 -3.1575 0.000839528 -3.54291
141 1 5.51441 -11.9664 2.265 1.48151 -3.56163
142 1 8.02097 -12.3759 -1.35 0.0157135 -3.53686
143 1 7.01834 -10.9259 0.4575 0.00100068 -3.54556
144 1 6.01572 -9.46538 2.265 2.50347 -3.55293
145 1 9.5249 -11.3588 -3.1575 0.00159384 -3.53373
146 1 8.52228 -9.89735 -1.35 0.000572518 -3.53643
147 1 7.51965 -8.43088 0.4575 0.000272219 -3.53309
148 1 6.51703 -6.95851 2.265 0.000118496 -3.53404
149 1 10.0262 -8.87431 -3.1575 0.000291528 -3.53912
150 1 9.02359 -7.40258 -1.35 0.000172475 -3.53942
151 1 8.02097 -5.92736 0.4575 8.75627e-05 -3.53968
152 1 7.01834 -4.44875 2.265 4.01897e-05 -3.55155
153 1 10.5275 -6.37794 -3.1575 0.000118476 -3.53961
154 1 9.5249 -4.89968 -1.35 7.2396e-05 -3.53976
155 1 8.52228 -3.41916 0.4575 4.01791e-05 -3.53979
156 1 7.51965 -1.93667 2.265 2.02726e-05 -3.53362
157 1 11.0288 -3.87432 -3.1575 6.32383e-05 -3.53985
158 1 10.0262 -2.39157 -1.35 4.33628e-05 -3.53988
159 1 9.02359 -0.90738 0.4575 2.94982e-05 -3.53989
160 1 8.02096 0.577896 2.265 2.15142e-05 -3.53987
161 1 11.5301 -1.36544 -3.1575 4.62354e-05 -3.53993
162 1 10.5275 0.120798 -1.35 3.90097e-05 -3.53992
163 1 9.5249 1.60796 0.4575 3.6391e-05 -3.53988
164 1 8.52227 3.09569 2.265 4.03272e-05 -3.53979
165 1 12.0314 1.14803 -3.1575 4.60922e-05 -3.53993
166 1 11.0288 2.63743 -1.35 4.9466e-05 -3.53988
167 1 10.0262 4.12754 0.4575 6.11845e-05 -3.5398
168 1 9.02359 5.61804 2.265 8.92594e-05 -3.53969
169 1 12.5328 3.66617 -3.1575 5.72159e-05 -3.53986
170 1 11.5301 5.15897 -1.35 7.49311e-05 -3.53974
171 1 10.5275 6.65267 0.4575 0.000112959 -3.53957
172 1 9.5249 8.14716 2.265 0.000198545 -3.53934
173 1 13.0341 6.18949 -3.1575 7.73092e-05 -3.53968
174 1 12.0314 7.6865 -1.35 0.000115545 -3.53945
175 1 11.0288 9.18525 0.4575 0.000196562 -3.53878
176 1 10.0262 10.6862 2.265 0.000802188 -3.54014
177 1 13.5354 8.71864 -3.1575 9.92977e-05 -3.53937
178 1 12.5328 10.2212 -1.35 0.000155984 -3.53901
179 1 11.5301 11.7271 0.4575 0.000839528 -3.54291
180 1 14.0367 11.2538 -3.1575 8.38486e-05 -3.54074
181 1 13.0341 12.7631 -1.35 0.00236132 -3.54183
182 1 8.02097 -12.3759 2.265 0.0157135 -3.53686
183 1 10.5275 -12.8188 -1.35 0.0227449 -3.53876
184 1 9.5249 -11.3588 0.4575 0.00159384 -3.53373
185 1 8.52228 -9.89735 2.265 0.000572518 -3.53643
186 1 12.0314 -11.812 -3.1575 0.00350021 -3.5368
187 1 11.0288 -10.3434 -1.35 0.000385679 -3.53536
188 1 10.0262 -8.87431 0.4575 0.000291528 -3.53912
189 1 9.02359 -7.40258 2.265 0.000172475 -3.53942
190 1 12.5328 -9.32877 -3.1575 0.000204263 -3.53877
191 1 11.5301 -7.85407 -1.35 0.000170069 -3.53941
192 1 10.5275 -6.37794 0.4575 0.000118476 -3.53961
193 1 9.5249 -4.89968 2.265 7.2396e-05 -3.53976
194 1 13.0341 -6.83538 -3.1575 0.000110692 -3.53967
195 1 12.0314 -5.35554 -1.35 8.7539e-05 -3.53977
196 1 11.0288 -3.87432 0.4575 6.32383e-05 -3.53985
197 1 10.0262 -2.39157 2.265 4.33628e-05 -3.53988
198 1 13.5354 -4.33456 -3.1575 6.84783e-05 -3.53989
199 1 12.5328 -2.85057 -1.35 5.67092e-05 -3.53992
200 1 11.5301 -1.36544 0.4575 4.62354e-05 -3.53993
201 1 10.5275 0.120798 2.265 3.90097e-05 -3.53992
202 1 14.0367 -1.82798 -3.1575 5.11487e-05 -3.53998
203 1 13.0341 -0.340463 -1.35 4.7369e-05 -3.53997
204 1 12.0314 1.14803 0.4575 4.60922e-05 -3.53993
205 1 11.0288 2.63743 2.265 4.9466e-05 -3.53988
206 1 14.538 0.683519 -3.1575 4.62019e-05 -3.53999
207 1 13.5354 2.17434 -1.35 4.92142e-05 -3.53994
208 1 12.5328 3.66617 0.4575 5.72159e-05 -3.53986
209 1 11.5301 5.15897 2.265 7.49311e-05 -3.53974
210 1 15.0393 3.19965 -3.1575 4.80196e-05 -3.53994
211 1 14.0367 4.69392 -1.35 5.80413e-05 -3.53983
212 1 13.0341 6.18949 0.4575 7.73092e-05 -3.53968
213 1 12.0314 7.6865 2.265 0.000115545 -3.53945
214 1 15.5406 5.7204 -3.1575 5.27906e-05 -3.53982
215 1 14.538 7.21857 -1.35 6.93609e-05 -3.53965
216 1 13.5354 8.71864 0.4575 9.92977e-05 -3.53937
217 1 12.5328 10.2212 2.265 0.000155984 -3.53901
218 1 16.0419 8.24577 -3.1575 5.59333e-05 -3.53966
219 1 15.0393 9.74839 -1.35 7.53365e-05 -3.53932
220 1 14.0367 11.2538 0.4575 8.38486e-05 -3.54074
221 1 13.0341 12.7631 2.265 0.00236132 -3.54183
222 1 16.5432 10.7754 -3.1575 0.000123894 -3.54047
223 1 15.5406 12.2828 -1.35 0.000505021 -3.54231
224 1 10.5275 -12.8188 2.265 0.0227449 -3.53876
225 1 12.0314 -11.812 0.4575 0.00350021 -3.5368
226 1 11.0288 -10.3434 2.265 0.000385679 -3.53536
227 1 14.538 -12.2789 -3.1575 0.00527847 -3.5391
228 1 13.5354 -10.8032 -1.35 0.000271902 -3.53735
229 1 12.5328 -9.32877 0.4575 0.000204263 -3.53877
230 1 11.5301 -7.85407 2.265 0.000170069 -3.53941
231 1 15.0393 -9.79325 -3.1575 0.000119284 -3.53846
232 1 14.0367 -8.31435 -1.35 0.000123559 -3.53961
233 1 13.0341 -6.83538 0.4575 0.000110692 -3.53967
234 1 12.0314 -5.35554 2.265 8.7539e-05 -3.53977
235 1 15.5406 -7.30005 -3.1575 8.23872e-05 -3.53978
236 1 14.538 -5.81759 -1.35 7.83224e-05 -3.53983
237 1 13.5354 -4.33456 0.4575 6.84783e-05 -3.53989
238 1 12.5328 -2.85057 2.265 5.67092e-05 -3.53992
239 1 16.0419 -4.80041 -3.1575 5.87889e-05 -3.53994
240 1 15.0393 -3.31457 -1.35 5.56037e-05 -3.53997
241 1 14.0367 -1.82798 0.4575 5.11487e-05 -3.53998
242 1 13.0341 -0.340463 2.265 4.7369e-05 -3.53997
243 1 16.5432 -2.29535 -3.1575 4.59949e-05 -3.54002
244 1 15.5406 -0.806345 -1.35 4.56829e-05 -3.54002
245 1 14.538 0.683519 0.4575 4.62019e-05 -3.53999
246 1 13.5354 2.17434 2.265 4.92142e-05 -3.53994
247 1 17.0446 0.214422 -3.1575 3.99688e-05 -3.54004
248 1 16.0419 1.70653 -1.35 4.27748e-05 -3.54
249 1 15.0393 3.19965 0.4575 4.80196e-05 -3.53994
250 1 14.0367 4.69392 2.265 5.80413e-05 -3.53983
251 1 17.5459 2.72851 -3.1575 3.76201e-05 -3.54001
252 1 16.5432 4.2238 -1.35 4.32779e-05 -3.53993
253 1 15.5406 5.7204 0.4575 5.27906e-05 -3.53982
254 1 14.538 7.21857 2.265 6.93609e-05 -3.53965
255 1 18.0472 5.24664 -3.1575 3.64623e-05 -3.53993
256 1 17.0445 6.74533 -1.35 4.39908e-05 -3.53981
257 1 16.0419 8.24577 0.4575 5.59333e-05 -3.53966
258 1 15.0393 9.74839 2.265 7.53365e-05 -3.53932
259 1 18.5485 7.76852 -3.1575 3.43536e-05 -3.53983
260 1 17.5459 9.27081 -1.35 4.19784e-05 -3.53951
261 1 16.5432 10.7754 0.4575 0.000123894 -3.54047
262 1 15.5406 12.2828 2.265 0.000505021 -3.54231
263 1 19.0498 10.2936 -3.1575 3.02803e-05 -3.53976
264 1 18.0472 11.7995 -1.35 0.000254433 -3.54186
265 1 19.5511 12.821 -3.1575 0.000788815 -3.54123
266 1 14.538 -12.2789 0.4575 0.00527847 -3.5391
267 1 13.5354 -10.8032 2.265 0.000271902 -3.53735
268 1 17.0446 -12.7542 -3.1575 0.0063906 -3.5401
269 1 16.0419 -11.2729 -1.35 0.000536471 -3.53727
270 1 15.0393 -9.79325 0.4575 0.000119284 -3.53846
271 1 14.0367 -8.31435 2.265 0.000123559 -3.53961
272 1 17.5459 -10.2654 -3.1575 6.7039e-05 -3.53805
273 1 16.5432 -8.78246 -1.35 7.83063e-05 -3.5398
274 1 15.5406 -7.30005 0.4575 8.23872e-05 -3.53978
275 1 14.538 -5.81759 2.265 7.83224e-05 -3.53983
276 1 18.0472 -7.77111 -3.1575 5.5015e-05 -3.53989
277 1 17.0446 -6.28579 -1.35 5.89011e-05 -3.53992
278 1 16.0419 -4.80041 0.4575 5.87889e-05 -3.53994
279 1 15.0393 -3.31457 2.265 5.56037e-05 -3.53997
280 1 18.5485 -5.27161 -3.1575 4.41579e-05 -3.54001
281 1 17.5459 -3.78369 -1.35 4.58172e-05 -3.54002
282 1 16.5432 -2.29535 0.4575 4.59949e-05 -3.54002
283 1 15.5406 -0.806345 2.265 4.56829e-05 -3.54002
284 1 19.0498 -2.7674 -3.1575 3.64396e-05 -3.54007
285 1 18.0472 -1.27682 -1.35 3.81801e-05 -3.54006
286 1 17.0446 0.214422 0.4575 3.99688e-05 -3.54004
287 1 16.0419 1.70653 2.265 4.27748e-05 -3.54
288 1 19.5511 -0.258963 -3.1575 3.14706e-05 -3.54008
289 1 18.5485 1.23432 -1.35 3.40441e-05 -3.54006
290 1 17.5459 2.72851 0.4575 3.76201e-05 -3.54001
291 1 16.5432 4.2238 2.265 4.32779e-05 -3.53993
292 1 20.0524 2.25332 -3.1575 2.81702e-05 -3.54006
293 1 19.0498 3.74939 -1.35 3.15555e-05 -3.54001
294 1 18.0472 5.24664 0.4575 3.64623e-05 -3.53993
295 1 17.0445 6.74533 2.265 4.39908e-05 -3.53981
296 1 20.5537 4.76911 -3.1575 2.54102e-05 -3.54002
297 1 19.5511 6.26807 -1.35 2.91115e-05 -3.53994
298 1 18.5485 7.76852 0.4575 3.43536e-05 -3.53983
299 1 17.5459 9.27081 2.265 4.19784e-05 -3.53951
300 1 21.055 7.288 -3.1575 2.23437e-05 -3.53995
301 1 20.0524 8.78989 -1.35 2.57024e-05 -3.53984
302 1 19.0498 10.2936 0.4575 3.02803e-05 -3.53976
303 1 18.0472 11.7995 2.265 0.000254433 -3.54186
304 1 21.5563 9.80946 -3.1575 1.87822e-05 -3.53984
305 1 20.5537 11.3142 -1.35 2.02593e-05 -3.54071
306 1 19.5511 12.821 0.4575 0.000788815 -3.54123
307 1 22.0577 12.3328 -3.1575 0.000178711 -3.5415
308 1 17.0446 -12.7542 0.4575 0.0063906 -3.5401
309 1 16.0419 -11.2729 2.265 0.000536471 -3.53727
310 1 18.5485 -11.7494 -1.35 0.00110416 -3.53862
311 1 17.5459 -10.2654 0.4575 6.7039e-05 -3.53805
312 1 16.5432 -8.78246 2.265 7.83063e-05 -3.5398
313 1 20.0524 -10.7432 -3.1575 8.78207e-05 -3.53883
314 1 19.0498 -9.25679 -1.35 4.7624e-05 -3.53965
315 1 18.0472 -7.77111 0.4575 5.5015e-05 -3.53989
316 1 17.0446 -6.28579 2.265 5.89011e-05 -3.53992
317 1 20.5537 -8.24741 -3.1575 3.52631e-05 -3.54001
318 1 19.5511 -6.75941 -1.35 4.05646e-05 -3.53999
319 1 18.5485 -5.27161 0.4575 4.41579e-05 -3.54001
320 1 17.5459 -3.78369 2.265 4.58172e-05 -3.54002
321 1 21.055 -5.7475 -3.1575 3.09037e-05 -3.54006
322 1 20.0524 -4.25754 -1.35 3.41096e-05 -3.54006
323 1 19.0498 -2.7674 0.4575 3.64396e-05 -3.54007
324 1 18.0472 -1.27682 2.265 3.81801e-05 -3.54006
325 1 21.5563 -3.24366 -3.1575 2.67873e-05 -3.5401
326 1 20.5537 -1.75155 -1.35 2.91981e-05 -3.5401
327 1 19.5511 -0.258963 0.4575 3.14706e-05 -3.54008
328 1 18.5485 1.23432 2.265 3.40441e-05 -3.54006
329 1 22.0577 -0.736186 -3.1575 2.33664e-05 -3.54012
330 1 21.055 0.758199 -1.35 2.55969e-05 -3.5401
331 1 20.0524 2.25332 0.4575 2.81702e-05 -3.54006
332 1 19.0498 3.74939 2.265 3.15555e-05 -3.54001
333 1 22.559 1.77462 -3.1575 2.04883e-05 -3.54011
334 1 21.5563 3.27137 -1.35 2.2671e-05 -3.54007
335 1 20.5537 4.76911 0.4575 2.54102e-05 -3.54002
336 1 19.5511 6.26807 2.265 2.91115e-05 -3.53994
337 1 23.0603 4.28844 -3.1575 1.78079e-05 -3.54008
338 1 22.0577 5.7876 -1.35 1.98064e-05 -3.54002
339 1 21.055 7.288 0.4575 2.23437e-05 -3.53995
340 1 20.0524 8.78989 2.265 2.57024e-05 -3.53984
341 1 23.5616 6.80487 -3.1575 1.50772e-05 -3.54004
342 1 22.559 8.30644 -1.35 1.67135e-05 -3.53998
343 1 21.5563 9.80946 0.4575 1.87822e-05 -3.53984
344 1 20.5537 11.3142 2.265 2.02593e-05 -3.54071
345 1 24.0629 9.32345 -3.1575 1.23297e-05 -3.5399
346 1 23.0603 10.8273 -1.35 3.31497e-05 -3.54055
347 1 22.0577 12.3328 0.4575 0.000178711 -3.5415
348 1 24.5642 11.8436 -3.1575 8.37941e-05 -3.54126
349 1 18.5485 -11.7494 2.265 0.00110416 -3.53862
350 1 21.055 -12.2307 -1.35 0.00165705 -3.53977
351 1 20.0524 -10.7432 0.4575 8.78207e-05 -3.53883
352 1 19.0498 -9.25679 2.265 4.7624e-05 -3.53965
353 1 22.559 -11.2252 -3.1575 0.000179596 -3.53866
354 1 21.5563 -9.73591 -1.35 2.90132e-05 -3.53942
355 1 20.5537 -8.24741 0.4575 3.52631e-05 -3.54001
356 1 19.5511 -6.75941 2.265 4.05646e-05 -3.53999
357 1 23.0603 -8.72787 -3.1575 2.24456e-05 -3.54008
358 1 22.0577 -7.23753 -1.35 2.68981e-05 -3.54005
359 1 21.055 -5.7475 0.4575 3.09037e-05 -3.54006
360 1 20.0524 -4.25754 2.265 3.41096e-05 -3.54006
361 1 23.5616 -6.22733 -3.1575 2.09324e-05 -3.5401
362 1 22.559 -4.73552 -1.35 2.4031e-05 -3.5401
363 1 21.5563 -3.24366 0.4575 2.67873e-05 -3.5401
364 1 20.5537 -1.75155 2.265 2.91981e-05 -3.5401
365 1 24.0629 -3.72357 -3.1575 1.89001e-05 -3.54013
366 1 23.0603 -2.23004 -1.35 2.11837e-05 -3.54013
367 1 22.0577 -0.736186 0.4575 2.33664e-05 -3.54012
368 1 21.055 0.758199 2.265 2.55969e-05 -3.5401
369 1 24.5642 -1.21675 -3.1575 1.6762e-05 -3.54014
370 1 23.5616 0.278651 -1.35 1.85798e-05 -3.54013
371 1 22.559 1.77462 0.4575 2.04883e-05 -3.54011
372 1 21.5563 3.27137 2.265 2.2671e-05 -3.54007
373 1 25.0655 1.29291 -3.1575 1.46441e-05 -3.54014
374 1 24.0629 2.79028 -1.35 1.61384e-05 -3.54011
375 1 23.0603 4.28844 0.4575 1.78079e-05 -3.54008
376 1 22.0577 5.7876 2.265 1.98064e-05 -3.54002
377 1 25.5668 3.80514 -3.1575 1.25333e-05 -3.54012
378 1 24.5642 5.30451 -1.35 1.37202e-05 -3.54008
379 1 23.5616 6.80487 0.4575 1.50772e-05 -3.54004
380 1 22.559 8.30644 2.265 1.67135e-05 -3.53998
381 1 26.0681 6.31958 -3.1575 1.04254e-05 -3.54009
382 1 25.0655 7.82094 -1.35 1.13047e-05 -3.54005
383 1 24.0629 9.32345 0.4575 1.23297e-05 -3.5399
384 1 23.0603 10.8273 2.265 3.31497e-05 -3.54055
385 1 26.5694 8.83585 -3.1575 8.41143e-06 -3.54006
386 1 25.5668 10.3391 -1.35 9.05485e-06 -3.54005
387 1 24.5642 11.8436 0.4575 8.37941e-05 -3.54126
388 1 27.0708 11.3535 -3.1575 6.48248e-06 -3.54059
389 1 26.0681 12.8584 -1.35 0.000280716 -3.54086
390 1 21.055 -12.2307 2.265 0.00165705 -3.53977
391 1 23.5616 -12.7153 -1.35 0.00210364 -3.54032
392 1 22.559 -11.2252 0.4575 0.000179596 -3.53866
393 1 21.5563 -9.73591 2.265 2.90132e-05 -3.53942
394 1 25.0655 -11.7102 -3.1575 0.000378126 -3.53935
395 1 24.0629 -10.2187 -1.35 1.8004e-05 -3.5391
396 1 23.0603 -8.72787 0.4575 2.24456e-05 -3.54008
397 1 22.0577 -7.23753 2.265 2.68981e-05 -3.54005
398 1 25.5668 -9.21161 -3.1575 1.44153e-05 -3.53997
399 1 24.5642 -7.7193 -1.35 1.76505e-05 -3.5401
400 1 23.5616 -6.22733 0.4575 2.09324e-05 -3.5401
401 1 22.559 -4.73552 2.265 2.4031e-05 -3.5401
402 1 26.0681 -6.71039 -3.1575 1.40296e-05 -3.54013
403 1 25.0655 -5.21696 -1.35 1.64924e-05 -3.54013
404 1 24.0629 -3.72357 0.4575 1.89001e-05 -3.54013
405 1 23.0603 -2.23004 2.265 2.11837e-05 -3.54013
406 1 26.5694 -4.20655 -3.1575 1.30801e-05 -3.54015
407 1 25.5668 -2.71175 -1.35 1.49371e-05 -3.54015
408 1 24.5642 -1.21675 0.4575 1.6762e-05 -3.54014
409 1 23.5616 0.278651 2.265 1.85798e-05 -3.54013
410 1 27.0708 -1.70015 -3.1575 1.1812e-05 -3.54016
411 1 26.0681 -0.203838 -1.35 1.32211e-05 -3.54015
412 1 25.0655 1.29291 0.4575 1.46441e-05 -3.54014
413 1 24.0629 2.79028 2.265 1.61384e-05 -3.54011
414 1 27.5721 0.808635 -3.1575 1.03766e-05 -3.54016
415 1 26.5694 2.30657 -1.35 1.14368e-05 -3.54014
416 1 25.5668 3.80514 0.4575 1.25333e-05 -3.54012
417 1 24.5642 5.30451 2.265 1.37202e-05 -3.54008
418 1 28.0734 3.3196 -3.1575 8.85959e-06 -3.54015
419 1 27.0708 4.81919 -1.35 9.62501e-06 -3.54012
420 1 26.0681 6.31958 0.4575 1.04254e-05 -3.54009
421 1 25.0655 7.82094 2.265 1.13047e-05 -3.54005
422 1 28.5747 5.83246 -3.1575 7.33444e-06 -3.54013
423 1 27.5721 7.33369 -1.35 7.85496e-06 -3.5401
424 1 26.5694 8.83585 0.4575 8.41143e-06 -3.54006
425 1 25.5668 10.3391 2.265 9.05485e-06 -3.54005
426 1 29.076 8.34689 -3.1575 5.89673e-06 -3.54012
427 1 28.0734 9.84969 -1.35 6.24862e-06 -3.54006
428 1 27.0708 11.3535 0.4575 6.48248e-06 -3.54059
429 1 26.0681 12.8584 2.265 0.000280716 -3.54086
430 1 29.5773 10.8625 -3.1575 1.17834e-05 -3.54049
431 1 28.5747 12.3667 -1.35 6.68562e-05 -3.54103
432 1 23.5616 -12.7153 2.265 0.00210364 -3.54032
433 1 25.0655 -11.7102 0.4575 0.000378126 -3.53935
434 1 24.0629 -10.2187 2.265 1.8004e-05 -3.5391
435 1 27.5721 -12.1978 -3.1575 0.000591961 -3.54
436 1 26.5694 -10.7044 -1.35 3.07381e-05 -3.53945
437 1 25.5668 -9.21161 0.4575 1.44153e-05 -3.53997
438 1 24.5642 -7.7193 2.265 1.76505e-05 -3.5401
439 1 28.0734 -9.69796 -3.1575 9.40598e-06 -3.5398
440 1 27.0708 -8.20402 -1.35 1.16282e-05 -3.54015
441 1 26.0681 -6.71039 0.4575 1.40296e-05 -3.54013
442 1 25.0655 -5.21696 2.265 1.64924e-05 -3.54013
443 1 28.5747 -7.1961 -3.1575 9.42135e-06 -3.54015
444 1 27.5721 -5.70128 -1.35 1.12213e-05 -3.54015
445 1 26.5694 -4.20655 0.4575 1.30801e-05 -3.54015
446 1 25.5668 -2.71175 2.265 1.49371e-05 -3.54015
447 1 29.076 -4.69209 -3.1575 9.00097e-06 -3.54017
448 1 28.0734 -3.19619 -1.35 1.04002e-05 -3.54017
449 1 27.0708 -1.70015 0.4575 1.1812e-05 -3.54016
450 1 26.0681 -0.203838 2.265 1.32211e-05 -3.54015
451 1 29.5773 -2.18596 -3.1575 8.26867e-06 -3.54018
452 1 28.5747 -0.688827 -1.35 9.32307e-06 -3.54017
453 1 27.5721 0.808635 0.4575 1.03766e-05 -3.54016
454 1 26.5694 2.30657 2.265 1.14368e-05 -3.54014
455 1 30.0786 0.322173 -3.1575 7.33639e-06 -3.54017
456 1 29.076 1.82064 -1.35 8.10128e-06 -3.54016
457 1 28.0734 3.3196 0.4575 8.85959e-06 -3.54015
458 1 27.0708 4.81919 2.265 9.62501e-06 -3.54012
459 1 30.5799 2.83215 -3.1575 6.29565e-06 -3.54017
460 1 29.5773 4.33199 -1.35 6.82011e-06 -3.54015
461 1 28.5747 5.83246 0.4575 7.33444e-06 -3.54013
462 1 27.5721 7.33369 2.265 7.85496e-06 -3.5401
463 1 31.0812 5.34375 -3.1575 5.22885e-06 -3.54015
464 1 30.0786 6.84495 -1.35 5.56501e-06 -3.54014
465 1 29.076 8.34689 0.4575 5.89673e-06 -3.54012
466 1 28.0734 9.84969 2.265 6.24862e-06 -3.54006
467 1 31.5825 7.85671 -3.1575 4.21771e-06 -3.54014
468 1 30.5799 9.35922 -1.35 4.42826e-06 -3.54006
469 1 29.5773 10.8625 0.4575 1.17834e-05 -3.54049
470 1 28.5747 12.3667 2.265 6.68562e-05 -3.54103
471 1 32.0839 10.3707 -3.1575 3.33709e-06 -3.54015
472 1 31.0812 11.8744 -1.35 3.05873e-05 -3.5409
473 1 32.5852 12.8855 -3.1575 0.00011032 -3.54063
474 1 27.5721 -12.1978 0.4575 0.000591961 -3.54
475 1 26.5694 -10.7044 2.265 3.07381e-05 -3.53945
476 1 30.0786 -12.6872 -3.1575 0.000785498 -3.54033
477 1 29.076 -11.1923 -1.35 6.56913e-05 -3.53931
478 1 28.0734 -9.69796 0.4575 9.40598e-06 -3.5398
479 1 27.0708 -8.20402 2.265 1.16282e-05 -3.54015
480 1 30.5799 -10.1864 -3.1575 6.2515e-06 -3.53957
481 1 29.5773 -8.69111 -1.35 7.74693e-06 -3.54017
482 1 28.5747 -7.1961 0.4575 9.42135e-06 -3.54015
483 1 27.5721 -5.70128 2.265 1.12213e-05 -3.54015
484 1 31.0812 -7.68396 -3.1575 6.3824e-06 -3.54017
485 1 30.0786 -6.18798 -1.35 7.64845e-06 -3.54017
486 1 29.076 -4.69209 0.4575 9.00097e-06 -3.54017
487 1 28.0734 -3.19619 2.265 1.04002e-05 -3.54017
488 1 31.5825 -5.17976 -3.1575 6.21033e-06 -3.54018
489 1 30.5799 -3.6829 -1.35 7.22386e-06 -3.54018
490 1 29.5773 -2.18596 0.4575 8.26867e-06 -3.54018
491 1 28.5747 -0.688827 2.265 9.32307e-06 -3.54017
492 1 32.0839 -2.67379 -3.1575 5.79234e-06 -3.54019
493 1 31.0812 -1.17593 -1.35 6.56376e-06 -3.54018
494 1 30.0786 0.322173 0.4575 7.33639e-06 -3.54017
495 1 29.076 1.82064 2.265 8.10128e-06 -3.54016
496 1 32.5852 -0.16614 -3.1575 5.19925e-06 -3.54018
497 1 31.5825 1.33281 -1.35 5.75479e-06 -3.54018
498 1 30.5799 2.83215 0.4575 6.29565e-06 -3.54017
499 1 29.5773 4.33199 2.265 6.82011e-06 -3.54015
500 1 33.0865 2.34307 -3.1575 4.50217e-06 -3.54018
501 1 32.0839 3.84316 -1.35 4.87589e-06 -3.54017
502 1 31.0812 5.34375 0.4575 5.22885e-06 -3.54015
503 1 30.0786 6.84495 2.265 5.56501e-06 -3.54014
504 1 33.5878 4.85368 -3.1575 3.76925e-06 -3.54017
505 1 32.5852 6.3549 -1.35 4.00182e-06 -3.54016
506 1 31.5825 7.85671 0.4575 4.21771e-06 -3.54014
507 1 30.5799 9.35922 2.265 4.42826e-06 -3.54006
508 1 34.0891 7.36546 -3.1575 3.06395e-06 -3.54016
509 1 33.0865 8.86778 -1.35 3.20169e-06 -3.54015
510 1 32.0839 10.3707 0.4575 3.33709e-06 -3.54015
511 1 31.0812 11.8744 2.265 3.05873e-05 -3.5409
512 1 34.5904 9.87821 -3.1575 2.43962e-06 -3.54014
513 1 33.5878 11.3815 -1.35 2.38055e-06 -3.54048
514 1 32.5852 12.8855 0.4575 0.00011032 -3.54063
515 1 35.0917 12.3917 -3.1575 2.73227e-05 -3.54075
516 1 30.0786 -12.6872 0.4575 0.000785498 -3.54033
517 1 29.076 -11.1923 2.265 6.56913e-05 -3.53931
518 1 31.5825 -11.6821 -1.35 0.000143087 -3.53969
519 1 30.5799 -10.1864 0.4575 6.2515e-06 -3.53957
520 1 29.5773 -8.69111 2.265 7.74693e-06 -3.54017
521 1 33.0865 -10.6766 -3.1575 1.16936e-05 -3.53975
522 1 32.0839 -9.18014 -1.35 5.237e-06 -3.54009
523 1 31.0812 -7.68396 0.4575 6.3824e-06 -3.54017
524 1 30.0786 -6.18798 2.265 7.64845e-06 -3.54017
525 1 33.5878 -8.17361 -3.1575 4.37712e-06 -3.54019
526 1 32.5852 -6.67663 -1.35 5.2537e-06 -3.54018
527 1 31.5825 -5.17976 0.4575 6.21033e-06 -3.54018
528 1 30.5799 -3.6829 2.265 7.22386e-06 -3.54018
529 1 34.0891 -5.66919 -3.1575 4.31747e-06 -3.54019
530 1 33.0865 -4.17151 -1.35 5.0376e-06 -3.54019
531 1 32.0839 -2.67379 0.4575 5.79234e-06 -3.54019
532 1 31.0812 -1.17593 2.265 6.56376e-06 -3.54018
533 1 34.5904 -3.16332 -3.1575 4.07959e-06 -3.54019
534 1 33.5878 -1.66482 -1.35 4.6369e-06 -3.54019
535 1 32.5852 -0.16614 0.4575 5.19925e-06 -3.54018
536 1 31.5825 1.33281 2.265 5.75479e-06 -3.54018
537 1 35.0917 -0.656021 -3.1575 3.70524e-06 -3.54019
538 1 34.0891 0.843377 -1.35 4.1098e-06 -3.54019
539 1 33.0865 2.34307 0.4575 4.50217e-06 -3.54018
540 1 32.0839 3.84316 2.265 4.87589e-06 -3.54017
541 1 35.593 1.8526 -3.1575 3.24342e-06 -3.54019
542 1 34.5904 3.35294 -1.35 3.51605e-06 -3.54018
543 1 33.5878 4.85368 0.4575 3.76925e-06 -3.54017
544 1 32.5852 6.3549 2.265 4.00182e-06 -3.54016
545 1 36.0943 4.36241 -3.1575 2.74416e-06 -3.54018
546 1 35.0917 5.8637 -1.35 2.91297e-06 -3.54017
547 1 34.0891 7.36546 0.4575 3.06395e-06 -3.54016
548 1 33.0865 8.86778 2.265 3.20169e-06 -3.54015
549 1 36.5957 6.87326 -3.1575 2.25402e-06 -3.54018
550 1 35.593 8.37547 -1.35 2.35126e-06 -3.54017
551 1 34.5904 9.87821 0.4575 2.43962e-06 -3.54014
552 1 33.5878 11.3815 2.265 2.38055e-06 -3.54048
553 1 37.097 9.38496 -3.1575 1.81132e-06 -3.54014
554 1 36.0943 10.888 -1.35 4.81683e-06 -3.54042
555 1 35.0917 12.3917 0.4575 2.73227e-05 -3.54075
556 1 37.5983 11.8973 -3.1575 1.22601e-05 -3.54067
557 1 31.5825 -11.6821 2.265 0.000143087 -3.53969
558 1 34.0891 -12.1733 -1.35 0.000233987 -3.54009
559 1 33.0865 -10.6766 0.4575 1.16936e-05 -3.53975
560 1 32.0839 -9.18014 2.265 5.237e-06 -3.54009
561 1 35.593 -11.1681 -3.1575 2.62363e-05 -3.53965
562 1 34.5904 -9.67075 -1.35 3.59699e-06 -3.53997
563 1 33.5878 -8.17361 0.4575 4.37712e-06 -3.54019
564 1 32.5852 -6.67663 2.265 5.2537e-06 -3.54018
565 1 36.0943 -8.66471 -3.1575 3.04388e-06 -3.5402
566 1 35.0917 -7.1669 -1.35 3.64865e-06 -3.54019
567 1 34.0891 -5.66919 0.4575 4.31747e-06 -3.54019
568 1 33.0865 -4.17151 2.265 5.0376e-06 -3.54019
569 1 36.5957 -6.1601 -3.1575 3.03277e-06 -3.5402
570 1 35.593 -4.66172 -1.35 3.54066e-06 -3.54019
571 1 34.5904 -3.16332 0.4575 4.07959e-06 -3.54019
572 1 33.5878 -1.66482 2.265 4.6369e-06 -3.54019
573 1 37.097 -3.65427 -3.1575 2.89717e-06 -3.5402
574 1 36.0943 -2.15521 -1.35 3.29762e-06 -3.5402
575 1 35.0917 -0.656021 0.4575 3.70524e-06 -3.54019
576 1 34.0891 0.843377 2.265 4.1098e-06 -3.54019
577 1 37.5983 -1.14723 -3.1575 2.66088e-06 -3.5402
578 1 36.5957 0.352567 -1.35 2.95608e-06 -3.54019
579 1 35.593 1.8526 0.4575 3.24342e-06 -3.54019
580 1 34.5904 3.35294 2.265 3.51605e-06 -3.54018
581 1 38.0996 1.36093 -3.1575 2.35581e-06 -3.5402
582 1 37.097 2.86151 -1.35 2.55745e-06 -3.54019
583 1 36.0943 4.36241 0.4575 2.74416e-06 -3.54018
584 1 35.0917 5.8637 2.265 2.91297e-06 -3.54017
585 1 38.6009 3.87011 -3.1575 2.01657e-06 -3.54019
586 1 37.5983 5.3715 -1.35 2.14286e-06 -3.54019
587 1 36.5957 6.87326 0.4575 2.25402e-06 -3.54018
588 1 35.593 8.37547 2.265 2.35126e-06 -3.54017
589 1 39.1022 6.3802 -3.1575 1.67608e-06 -3.54019
590 1 38.0996 7.88237 -1.35 1.74869e-06 -3.54018
591 1 37.097 9.38496 0.4575 1.81132e-06 -3.54014
592 1 36.0943 10.888 2.265 4.81683e-06 -3.54042
593 1 39.6035 8.89105 -3.1575 1.36176e-06 -3.54018
594 1 38.6009 10.394 -1.35 1.40248e-06 -3.5402
595 1 37.5983 11.8973 0.4575 1.22601e-05 -3.54067
596 1 40.1048 11.4025 -3.1575 9.82132e-07 -3.54041
597 1 39.1022 12.9061 -1.35 4.77002e-05 -3.54049
598 1 34.0891 -12.1733 2.265 0.000233987 -3.54009
599 1 36.5957 -12.6657 -1.35 0.000322941 -3.54031
600 1 35.593 -11.1681 0.4575 2.62363e-05 -3.53965