ITEM: TIMESTEP
0
ITEM: NUMBER OF ATOMS
3190
ITEM: BOX BOUNDS xy xz yz mm pp pp
-1.0009999999999999e+02 1.0009999999999999e+02 0.0000000000000000e+00
-1.3034063250000001e+01 1.3034063250000001e+01 0.0000000000000000e+00
-3.6150000000000002e+00 3.6150000000000002e+00 0.0000000000000000e+00
ITEM: ATOMS id type x y z c_csym c_energy
1 2 2.814e-07 7.01835 -1.8075 2.83382 0.246512
2 1 0.50131 8.98031 -3.1575 10.0876 -1.18312
3 1 1.00262 11.5011 -3.1575 5.40282 -3.49961
4 1 -5.628e-07 -13.034 -1.35 8.78995 -1.39141
5 1 2.814e-07 -6.51705 -3.1575 10.1871 -1.57995
6 2 3.50917 -3.77047 -2.40807e-15 8.2359 -1.13803
7 2 1.50393 -0.424703 -1.8075 1.8252 -3.54273
8 2 -2.84217e-14 0.501309 -2.40807e-15 0.000176957 -3.53834
9 2 1.00262 2.05374 -1.8075 0.000394871 -3.54661
10 2 3.50917 -3.77047 3.615 8.2359 -1.13803
11 2 0.50131 4.54316 -1.8075 0.00587218 -3.58904
12 2 1.50393 6.14296 -2.40807e-15 7.12101 -2.06381
13 2 2.814e-07 7.01835 1.8075 2.83382 0.246512
14 2 3.00786 5.18608 -1.8075 9.61842 -2.82933
15 1 1.50393 7.29627 -1.35 8.56675 1.45686
16 1 0.50131 8.98031 0.4575 10.0876 -1.18312
17 1 3.00786 8.36017 -3.1575 1.35973 -3.60622
18 1 2.00524 9.94133 -1.35 2.25878 -3.57789
19 1 1.00262 11.5011 0.4575 5.40282 -3.49961
20 1 -5.628e-07 -13.034 2.265 8.78995 -1.39141
21 1 3.50917 10.9383 -3.1575 0.00255016 -3.53204
22 1 2.50655 12.4816 -1.35 0.00291216 -3.53416
23 1 1.50393 -12.057 -3.1575 1.48644 -3.57036
24 1 0.501311 -10.5399 -1.35 7.24889 -1.09929
25 1 2.00524 -9.58497 -3.1575 2.34892 -3.53534
26 1 1.00262 -8.07837 -1.35 5.09218 -3.45899
27 1 2.814e-07 -6.51705 0.4575 10.1871 -1.57995
28 1 2.50655 -7.16953 -3.1575 5.15087 -3.29788
29 2 1.00262 -4.35474 -2.40807e-15 6.48453 -3.38186
30 2 2.00524 -2.86429 1.8075 2.80662 -3.51856
31 2 2.50655 -5.45901 -1.8075 10.6164 -1.55284
32 2 0.50131 -1.97312 -2.40807e-15 0.0141909 -3.50681
33 2 1.50393 -0.424703 1.8075 1.8252 -3.54273
34 2 -2.84217e-14 0.501309 3.615 0.000176957 -3.53834
35 2 2.00524 -2.86429 -1.8075 2.80662 -3.51856
36 2 2.50655 1.11839 -2.40807e-15 5.56577 -2.34282
37 2 1.00262 2.05374 1.8075 0.000394871 -3.54661
38 2 1.00262 -4.35474 3.615 6.48453 -3.38186
39 1 4.01048 0.174128 -3.1575 8.84196 -1.35741
40 2 3.50917 2.66556 -1.8075 9.05411 -1.13012
41 2 0.50131 4.54316 1.8075 0.00587218 -3.58904
42 2 1.50393 6.14296 3.615 7.12101 -2.06381
43 1 4.51179 2.70898 -3.1575 7.20574 -1.1224
44 2 2.00524 3.6128 -2.40807e-15 2.56642 -3.55825
45 2 3.00786 5.18608 1.8075 9.61842 -2.82933
46 1 1.50393 7.29627 2.265 8.56675 1.45686
47 1 5.0131 5.27202 -3.1575 5.15454 -3.47936
48 1 4.01048 6.79969 -1.35 4.1512 -2.8462
49 1 3.00786 8.36017 0.4575 1.35973 -3.60622
50 1 2.00524 9.94133 2.265 2.25878 -3.57789
51 1 5.51441 7.84788 -3.1575 0.00172833 -3.53311
52 1 4.51179 9.38925 -1.35 0.00332961 -3.5339
53 1 3.50917 10.9383 0.4575 0.00255016 -3.53204
54 1 2.50655 12.4816 2.265 0.00291216 -3.53416
55 1 6.01572 10.409 -3.1575 0.000955986 -3.53804
56 1 5.0131 11.943 -1.35 0.00173701 -3.54116
57 1 6.51703 12.9499 -3.1575 0.0029774 -3.54134
58 1 1.50393 -12.057 0.4575 1.48644 -3.57036
59 1 0.501311 -10.5399 2.265 7.24889 -1.09929
60 1 4.01048 -12.5869 -3.1575 0.00890936 -3.5394
61 1 3.00786 -11.0864 -1.35 0.002858 -3.54882
62 1 2.00524 -9.58497 0.4575 2.34892 -3.53534
63 1 1.00262 -8.07837 2.265 5.09218 -3.45899
64 1 4.51179 -10.1165 -3.1575 0.00116714 -3.53568
65 1 3.50917 -8.63318 -1.35 0.00456104 -3.52692
66 1 2.50655 -7.16953 0.4575 5.15087 -3.29788
67 2 3.00786 -1.3478 3.615 9.53107 -2.49367
68 1 5.0131 -7.66604 -3.1575 0.00153097 -3.54193
69 1 4.01048 -6.21166 -1.35 4.16652 -1.70034
70 2 2.50655 -5.45901 1.8075 10.6164 -1.55284
71 2 0.50131 -1.97312 3.615 0.0141909 -3.50681
72 1 5.51441 -5.21989 -3.1575 1.43617 -3.56081
73 1 4.51179 -3.77246 -1.35 7.16272 -1.11454
74 2 3.00786 -1.3478 -2.40807e-15 9.53107 -2.49367
75 2 2.50655 1.11839 3.615 5.56577 -2.34282
76 1 6.01572 -2.75033 -3.1575 2.37002 -3.55251
77 1 5.0131 -1.28956 -1.35 5.13315 -3.49686
78 1 4.01048 0.174128 0.4575 8.84196 -1.35741
79 2 3.50917 2.66556 1.8075 9.05411 -1.13012
80 1 6.51703 -0.251858 -3.1575 0.00114139 -3.53421
81 1 5.51441 1.22536 -1.35 1.45616 -3.56715
82 1 4.51179 2.70898 0.4575 7.20574 -1.1224
83 2 2.00524 3.6128 3.615 2.56642 -3.55825
84 1 7.01834 2.27018 -3.1575 0.000848034 -3.55093
85 1 6.01572 3.76508 -1.35 2.63327 -3.55156
86 1 5.0131 5.27202 0.4575 5.15454 -3.47936
87 1 4.01048 6.79969 2.265 4.1512 -2.8462
88 1 7.51965 4.80975 -3.1575 0.000549631 -3.53179
89 1 6.51703 6.32178 -1.35 0.000805218 -3.5289
90 1 5.51441 7.84788 0.4575 0.00172833 -3.53311
91 1 4.51179 9.38925 2.265 0.00332961 -3.5339
92 1 8.02096 7.35724 -3.1575 0.000360071 -3.53814
93 1 7.01834 8.87909 -1.35 0.000638927 -3.53771
94 1 6.01572 10.409 0.4575 0.000955986 -3.53804
95 1 5.0131 11.943 2.265 0.00173701 -3.54116
96 1 8.52227 9.90154 -3.1575 0.000267026 -3.5388
97 1 7.51965 11.4244 -1.35 0.000453769 -3.54027
98 1 6.51703 12.9499 0.4575 0.0029774 -3.54134
99 1 9.02358 12.4372 -3.1575 0.000887491 -3.54188
100 1 4.01048 -12.5869 0.4575 0.00890936 -3.5394
101 1 3.00786 -11.0864 2.265 0.002858 -3.54882
102 1 5.51441 -11.6073 -1.35 0.00356405 -3.53803
103 1 4.51179 -10.1165 0.4575 0.00116714 -3.53568
104 1 3.50917 -8.63318 2.265 0.00456104 -3.52692
105 1 7.01834 -10.6242 -3.1575 0.000752857 -3.53792
106 1 6.01572 -9.13988 -1.35 0.000594978 -3.53746
107 1 5.0131 -7.66604 0.4575 0.00153097 -3.54193
108 1 4.01048 -6.21166 2.265 4.16652 -1.70034
109 1 7.51965 -8.15358 -3.1575 0.000310991 -3.53887
110 1 6.51703 -6.68053 -1.35 0.000779586 -3.54073
111 1 5.51441 -5.21989 0.4575 1.43617 -3.56081
112 1 4.51179 -3.77246 2.265 7.16272 -1.11454
113 1 8.02097 -5.68229 -3.1575 0.00049803 -3.53893
114 1 7.01834 -4.21324 -1.35 0.00107799 -3.54901
115 1 6.01572 -2.75033 0.4575 2.37002 -3.55251
116 1 5.0131 -1.28956 2.265 5.13315 -3.49686
117 1 8.52228 -3.19984 -3.1575 0.000592063 -3.53936
118 1 7.51965 -1.72582 -1.35 0.000897839 -3.53333
119 1 6.51703 -0.251858 0.4575 0.00114139 -3.53421
120 1 5.51441 1.22536 2.265 1.45616 -3.56715
121 1 9.02359 -0.701148 -3.1575 0.000499723 -3.53971
122 1 8.02096 0.782533 -1.35 0.000655541 -3.53954
123 1 7.01834 2.27018 0.4575 0.000848034 -3.55093
124 1 6.01572 3.76508 2.265 2.63327 -3.55156
125 1 9.5249 1.81304 -3.1575 0.000353806 -3.53961
126 1 8.52227 3.30796 -1.35 0.000434498 -3.53906
127 1 7.51965 4.80975 0.4575 0.000549631 -3.53179
128 1 6.51703 6.32178 2.265 0.000805218 -3.5289
129 1 10.0262 4.33899 -3.1575 0.000209743 -3.53935
130 1 9.02359 5.8443 -1.35 0.0002498 -3.53879
131 1 8.02096 7.35724 0.4575 0.000360071 -3.53814
132 1 7.01834 8.87909 2.265 0.000638927 -3.53771
133 1 10.5275 6.87114 -3.1575 0.000121977 -3.53928
134 1 9.5249 8.38346 -1.35 0.00017245 -3.539
135 1 8.52227 9.90154 0.4575 0.000267026 -3.5388
136 1 7.51965 11.4244 2.265 0.000453769 -3.54027
137 1 11.0288 9.40371 -3.1575 8.7386e-05 -3.53933
138 1 10.0262 10.9189 -1.35 8.74426e-05 -3.54026
139 1 9.02358 12.4372 0.4575 0.000887491 -3.54188
140 1 11.5301 11.933 -3.1575 0.000318542 -3.54154
141 1 5.51441 -11.6073 2.265 0.00356405 -3.53803
142 1 8.02097 -12.1144 -1.35 0.00430586 -3.53952
143 1 7.01834 -10.6242 0.4575 0.000752857 -3.53792
144 1 6.01572 -9.13988 2.265 0.000594978 -3.53746
145 1 9.5249 -11.1234 -3.1575 0.000706704 -3.538
146 1 8.52228 -9.63554 -1.35 0.000146241 -3.53856
147 1 7.51965 -8.15358 0.4575 0.000310991 -3.53887
148 1 6.51703 -6.68053 2.265 0.000779586 -3.54073
149 1 10.0262 -8.64114 -3.1575 9.99558e-05 -3.53966
150 1 9.02359 -7.15856 -1.35 0.000214716 -3.53934
151 1 8.02097 -5.68229 0.4575 0.00049803 -3.53893
152 1 7.01834 -4.21324 2.265 0.00107799 -3.54901
153 1 10.5275 -6.15717 -3.1575 0.000161184 -3.5397
154 1 9.5249 -4.67652 -1.35 0.00032529 -3.53954
155 1 8.52228 -3.19984 0.4575 0.000592063 -3.53936
156 1 7.51965 -1.72582 2.265 0.000897839 -3.53333
157 1 11.0288 -3.66658 -3.1575 0.000212229 -3.53986
158 1 10.0262 -2.18351 -1.35 0.000345639 -3.5398
159 1 9.02359 -0.701148 0.4575 0.000499723 -3.53971
160 1 8.02096 0.782533 2.265 0.000655541 -3.53954
161 1 11.5301 -1.16635 -3.1575 0.000204241 -3.53996
162 1 10.5275 0.322315 -1.35 0.000278992 -3.53986
163 1 9.5249 1.81304 0.4575 0.000353806 -3.53961
164 1 8.52227 3.30796 2.265 0.000434498 -3.53906
165 1 12.0314 1.3438 -3.1575 0.00015316 -3.53992
166 1 11.0288 2.83944 -1.35 0.000182799 -3.53971
167 1 10.0262 4.33899 0.4575 0.000209743 -3.53935
168 1 9.02359 5.8443 2.265 0.0002498 -3.53879
169 1 12.5328 3.86196 -3.1575 9.38686e-05 -3.53981
170 1 11.5301 5.36429 -1.35 0.000103174 -3.53958
171 1 10.5275 6.87114 0.4575 0.000121977 -3.53928
172 1 9.5249 8.38346 2.265 0.00017245 -3.539
173 1 13.0341 6.38503 -3.1575 5.34201e-05 -3.53976
174 1 12.0314 7.89242 -1.35 6.36775e-05 -3.53959
175 1 11.0288 9.40371 0.4575 8.7386e-05 -3.53933
176 1 10.0262 10.9189 2.265 8.74426e-05 -3.54026
177 1 13.5354 8.9097 -3.1575 3.51287e-05 -3.53979
178 1 12.5328 10.42 -1.35 4.6698e-05 -3.53977
179 1 11.5301 11.933 0.4575 0.000318542 -3.54154
180 1 14.0367 11.4335 -3.1575 3.93543e-05 -3.54064
181 1 13.0341 12.9448 -1.35 0.000743868 -3.54112
182 1 8.02097 -12.1144 2.265 0.00430586 -3.53952
183 1 10.5275 -12.6152 -1.35 0.00468995 -3.54028
184 1 9.5249 -11.1234 0.4575 0.000706704 -3.538
185 1 8.52228 -9.63554 2.265 0.000146241 -3.53856
186 1 12.0314 -11.6197 -3.1575 0.00100736 -3.53903
187 1 11.0288 -10.1286 -1.35 5.15137e-05 -3.53846
188 1 10.0262 -8.64114 0.4575 9.99558e-05 -3.53966
189 1 9.02359 -7.15856 2.265 0.000214716 -3.53934
190 1 12.5328 -9.13025 -3.1575 4.06972e-05 -3.53974
191 1 11.5301 -7.6419 -1.35 7.9058e-05 -3.53983
192 1 10.5275 -6.15717 0.4575 0.000161184 -3.5397
193 1 9.5249 -4.67652 2.265 0.00032529 -3.53954
194 1 13.0341 -6.63904 -3.1575 6.38449e-05 -3.53998
195 1 12.0314 -5.15159 -1.35 0.000118916 -3.53992
196 1 11.0288 -3.66658 0.4575 0.000212229 -3.53986
197 1 10.0262 -2.18351 2.265 0.000345639 -3.5398
198 1 13.5354 -4.14348 -3.1575 8.47541e-05 -3.54004
199 1 12.5328 -2.65458 -1.35 0.000136782 -3.54001
200 1 11.5301 -1.16635 0.4575 0.000204241 -3.53996
201 1 10.5275 0.322315 2.265 0.000278992 -3.53986
202 1 14.0367 -1.64181 -3.1575 8.66308e-05 -3.54008
203 1 13.0341 -0.149524 -1.35 0.000119716 -3.54003
204 1 12.0314 1.3438 0.4575 0.00015316 -3.53992
205 1 11.0288 2.83944 2.265 0.000182799 -3.53971
206 1 14.538 0.866322 -3.1575 6.95288e-05 -3.54006
207 1 13.5354 2.36301 -1.35 8.33697e-05 -3.53997
208 1 12.5328 3.86196 0.4575 9.38686e-05 -3.53981
209 1 11.5301 5.36429 2.265 0.000103174 -3.53958
210 1 15.0393 3.38 -3.1575 4.57274e-05 -3.54001
211 1 14.0367 4.88112 -1.35 4.93586e-05 -3.5399
212 1 13.0341 6.38503 0.4575 5.34201e-05 -3.53976
213 1 12.0314 7.89242 2.265 6.36775e-05 -3.53959
214 1 15.5406 5.89749 -3.1575 2.70052e-05 -3.53998
215 1 14.538 7.40226 -1.35 2.92718e-05 -3.53989
216 1 13.5354 8.9097 0.4575 3.51287e-05 -3.53979
217 1 12.5328 10.42 2.265 4.6698e-05 -3.53977
218 1 16.0419 8.41681 -3.1575 1.68919e-05 -3.53999
219 1 15.0393 9.92407 -1.35 2.03004e-05 -3.5399
220 1 14.0367 11.4335 0.4575 3.93543e-05 -3.54064
221 1 13.0341 12.9448 2.265 0.000743868 -3.54112
222 1 16.5432 10.9363 -3.1575 1.41734e-05 -3.54051
223 1 15.5406 12.4449 -1.35 0.000168492 -3.54129
224 1 10.5275 -12.6152 2.265 0.00468995 -3.54028
225 1 12.0314 -11.6197 0.4575 0.00100736 -3.53903
226 1 11.0288 -10.1286 2.265 5.15137e-05 -3.53846
227 1 14.538 -12.1152 -3.1575 0.00119455 -3.53996
228 1 13.5354 -10.6215 -1.35 0.000106645 -3.53918
229 1 12.5328 -9.13025 0.4575 4.06972e-05 -3.53974
230 1 11.5301 -7.6419 2.265 7.9058e-05 -3.53983
231 1 15.0393 -9.62107 -3.1575 1.9116e-05 -3.53962
232 1 14.0367 -8.12895 -1.35 3.43683e-05 -3.54005
233 1 13.0341 -6.63904 0.4575 6.38449e-05 -3.53998
234 1 12.0314 -5.15159 2.265 0.000118916 -3.53992
235 1 15.5406 -7.12542 -3.1575 2.87695e-05 -3.54009
236 1 14.538 -5.63368 -1.35 4.98999e-05 -3.54007
237 1 13.5354 -4.14348 0.4575 8.47541e-05 -3.54004
238 1 12.5328 -2.65458 2.265 0.000136782 -3.54001
239 1 16.0419 -4.62673 -3.1575 3.74401e-05 -3.54013
240 1 15.0393 -3.13401 -1.35 5.8472e-05 -3.54011
241 1 14.0367 -1.64181 0.4575 8.66308e-05 -3.54008
242 1 13.0341 -0.149524 2.265 0.000119716 -3.54003
243 1 16.5432 -2.12397 -3.1575 3.92931e-05 -3.54014
244 1 15.5406 -0.629084 -1.35 5.40065e-05 -3.54012
245 1 14.538 0.866322 0.4575 6.95288e-05 -3.54006
246 1 13.5354 2.36301 2.265 8.33697e-05 -3.53997
247 1 17.0446 0.38316 -3.1575 3.3347e-05 -3.54013
248 1 16.0419 1.88092 -1.35 4.03251e-05 -3.54009
249 1 15.0393 3.38 0.4575 4.57274e-05 -3.54001
250 1 14.0367 4.88112 2.265 4.93586e-05 -3.5399
251 1 17.5459 2.8942 -3.1575 2.35859e-05 -3.54011
252 1 16.5432 4.39496 -1.35 2.56275e-05 -3.54005
253 1 15.5406 5.89749 0.4575 2.70052e-05 -3.53998
254 1 14.538 7.40226 2.265 2.92718e-05 -3.53989
255 1 18.0472 5.40816 -3.1575 1.48052e-05 -3.54008
256 1 17.0445 6.91158 -1.35 1.54527e-05 -3.54003
257 1 16.0419 8.41681 0.4575 1.68919e-05 -3.53999
258 1 15.0393 9.92407 2.265 2.03004e-05 -3.5399
259 1 18.5485 7.92385 -3.1575 9.23734e-06 -3.54008
260 1 17.5459 9.42928 -1.35 1.01926e-05 -3.53997
261 1 16.5432 10.9363 0.4575 1.41734e-05 -3.54051
262 1 15.5406 12.4449 2.265 0.000168492 -3.54129
263 1 19.0498 10.4402 -3.1575 6.38857e-06 -3.54011
264 1 18.0472 11.9469 -1.35 6.71757e-05 -3.54105
265 1 19.5511 12.9563 -3.1575 0.000183177 -3.54074
266 1 14.538 -12.1152 0.4575 0.00119455 -3.53996
267 1 13.5354 -10.6215 2.265 0.000106645 -3.53918
268 1 17.0446 -12.6107 -3.1575 0.00131243 -3.54038
269 1 16.0419 -11.1151 -1.35 0.000148686 -3.53908
270 1 15.0393 -9.62107 0.4575 1.9116e-05 -3.53962
271 1 14.0367 -8.12895 2.265 3.43683e-05 -3.54005
272 1 17.5459 -10.1135 -3.1575 9.87652e-06 -3.53941
273 1 16.5432 -8.61872 -1.35 1.6666e-05 -3.54014
274 1 15.5406 -7.12542 0.4575 2.87695e-05 -3.54009
275 1 14.538 -5.63368 2.265 4.98999e-05 -3.54007
276 1 18.0472 -7.61493 -3.1575 1.42213e-05 -3.54015
277 1 17.0446 -6.12033 -1.35 2.32167e-05 -3.54014
278 1 16.0419 -4.62673 0.4575 3.74401e-05 -3.54013
279 1 15.0393 -3.13401 2.265 5.8472e-05 -3.54011
280 1 18.5485 -5.1142 -3.1575 1.80198e-05 -3.54017
281 1 17.5459 -3.61889 -1.35 2.71144e-05 -3.54016
282 1 16.5432 -2.12397 0.4575 3.92931e-05 -3.54014
283 1 15.5406 -0.629084 2.265 5.40065e-05 -3.54012
284 1 19.0498 -2.61062 -3.1575 1.91127e-05 -3.54017
285 1 18.0472 -1.11386 -1.35 2.59186e-05 -3.54016
286 1 17.0446 0.38316 0.4575 3.3347e-05 -3.54013
287 1 16.0419 1.88092 2.265 4.03251e-05 -3.54009
288 1 19.5511 -0.104001 -3.1575 1.6916e-05 -3.54017
289 1 18.5485 1.3947 -1.35 2.05562e-05 -3.54014
290 1 17.5459 2.8942 0.4575 2.35859e-05 -3.54011
291 1 16.5432 4.39496 2.265 2.56275e-05 -3.54005
292 1 20.0524 2.40544 -3.1575 1.27462e-05 -3.54015
293 1 19.0498 3.90623 -1.35 1.40291e-05 -3.54012
294 1 18.0472 5.40816 0.4575 1.48052e-05 -3.54008
295 1 17.0445 6.91158 2.265 1.54527e-05 -3.54003
296 1 20.5537 4.91712 -3.1575 8.53508e-06 -3.54014
297 1 19.5511 6.41986 -1.35 8.85154e-06 -3.54011
298 1 18.5485 7.92385 0.4575 9.23734e-06 -3.54008
299 1 17.5459 9.42928 2.265 1.01926e-05 -3.53997
300 1 21.055 7.43031 -3.1575 5.47932e-06 -3.54013
301 1 20.0524 8.93465 -1.35 5.74611e-06 -3.54011
302 1 19.0498 10.4402 0.4575 6.38857e-06 -3.54011
303 1 18.0472 11.9469 2.265 6.71757e-05 -3.54105
304 1 21.5563 9.94427 -3.1575 3.70211e-06 -3.54012
305 1 20.5537 11.4498 -1.35 6.00652e-06 -3.54052
306 1 19.5511 12.9563 0.4575 0.000183177 -3.54074
307 1 22.0577 12.4584 -3.1575 4.09024e-05 -3.54083
308 1 17.0446 -12.6107 0.4575 0.00131243 -3.54038
309 1 16.0419 -11.1151 2.265 0.000148686 -3.53908
310 1 18.5485 -11.6094 -1.35 0.000251304 -3.5396
311 1 17.5459 -10.1135 0.4575 9.87652e-06 -3.53941
312 1 16.5432 -8.61872 2.265 1.6666e-05 -3.54014
313 1 20.0524 -10.6072 -3.1575 2.22966e-05 -3.53969
314 1 19.0498 -9.11056 -1.35 8.74683e-06 -3.54006
315 1 18.0472 -7.61493 0.4575 1.42213e-05 -3.54015
316 1 17.0446 -6.12033 2.265 2.32167e-05 -3.54014
317 1 20.5537 -8.10669 -3.1575 7.54979e-06 -3.54019
318 1 19.5511 -6.6101 -1.35 1.1713e-05 -3.54017
319 1 18.5485 -5.1142 0.4575 1.80198e-05 -3.54017
320 1 17.5459 -3.61889 2.265 2.71144e-05 -3.54016
321 1 21.055 -5.60457 -3.1575 9.31773e-06 -3.54019
322 1 20.0524 -4.10745 -1.35 1.35338e-05 -3.54018
323 1 19.0498 -2.61062 0.4575 1.91127e-05 -3.54017
324 1 18.0472 -1.11386 2.265 2.59186e-05 -3.54016
325 1 21.5563 -3.10041 -3.1575 9.91346e-06 -3.54019
326 1 20.5537 -1.60227 -1.35 1.32239e-05 -3.54018
327 1 19.5511 -0.104001 0.4575 1.6916e-05 -3.54017
328 1 18.5485 1.3947 2.265 2.05562e-05 -3.54014
329 1 22.0577 -0.594039 -3.1575 9.04929e-06 -3.54019
330 1 21.055 0.905449 -1.35 1.10048e-05 -3.54017
331 1 20.0524 2.40544 0.4575 1.27462e-05 -3.54015
332 1 19.0498 3.90623 2.265 1.40291e-05 -3.54012
333 1 22.559 1.91441 -3.1575 7.18108e-06 -3.54018
334 1 21.5563 3.41539 -1.35 7.99879e-06 -3.54016
335 1 20.5537 4.91712 0.4575 8.53508e-06 -3.54014
336 1 19.5511 6.41986 2.265 8.85154e-06 -3.54011
337 1 23.0603 4.42459 -3.1575 5.1024e-06 -3.54017
338 1 22.0577 5.92702 -1.35 5.32808e-06 -3.54015
339 1 21.055 7.43031 0.4575 5.47932e-06 -3.54013
340 1 20.0524 8.93465 2.265 5.74611e-06 -3.54011
341 1 23.5616 6.93604 -3.1575 3.41674e-06 -3.54016
342 1 22.559 8.43972 -1.35 3.50618e-06 -3.54015
343 1 21.5563 9.94427 0.4575 3.70211e-06 -3.54012
344 1 20.5537 11.4498 2.265 6.00652e-06 -3.54052
345 1 24.0629 9.44825 -3.1575 2.31305e-06 -3.54012
346 1 23.0603 10.9529 -1.35 4.54621e-06 -3.54044
347 1 22.0577 12.4584 0.4575 4.09024e-05 -3.54083
348 1 24.5642 11.9608 -3.1575 1.74178e-05 -3.5407
349 1 18.5485 -11.6094 2.265 0.000251304 -3.5396
350 1 21.055 -12.1046 -1.35 0.000330249 -3.5401
351 1 20.0524 -10.6072 0.4575 2.22966e-05 -3.53969
352 1 19.0498 -9.11056 2.265 8.74683e-06 -3.54006
353 1 22.559 -11.102 -3.1575 3.80829e-05 -3.53961
354 1 21.5563 -9.60398 -1.35 4.88017e-06 -3.53994
355 1 20.5537 -8.10669 0.4575 7.54979e-06 -3.54019
356 1 19.5511 -6.6101 2.265 1.1713e-05 -3.54017
357 1 23.0603 -8.60013 -3.1575 4.24535e-06 -3.54021
358 1 22.0577 -7.10211 -1.35 6.30994e-06 -3.54019
359 1 21.055 -5.60457 0.4575 9.31773e-06 -3.54019
360 1 20.0524 -4.10745 2.265 1.35338e-05 -3.54018
361 1 23.5616 -6.09705 -3.1575 5.11672e-06 -3.5402
362 1 22.559 -4.59862 -1.35 7.20022e-06 -3.54019
363 1 21.5563 -3.10041 0.4575 9.91346e-06 -3.54019
364 1 20.5537 -1.60227 2.265 1.32239e-05 -3.54018
365 1 24.0629 -3.59243 -3.1575 5.4414e-06 -3.5402
366 1 23.0603 -2.09327 -1.35 7.13596e-06 -3.54019
367 1 22.0577 -0.594039 0.4575 9.04929e-06 -3.54019
368 1 21.055 0.905449 2.265 1.10048e-05 -3.54017
369 1 24.5642 -1.08619 -3.1575 5.08127e-06 -3.5402
370 1 23.5616 0.413947 -1.35 6.16465e-06 -3.54019
371 1 22.559 1.91441 0.4575 7.18108e-06 -3.54018
372 1 21.5563 3.41539 2.265 7.99879e-06 -3.54016
373 1 25.0655 1.42162 -3.1575 4.20283e-06 -3.54019
374 1 24.0629 2.92285 -1.35 4.72348e-06 -3.54018
375 1 23.0603 4.42459 0.4575 5.1024e-06 -3.54017
376 1 22.0577 5.92702 2.265 5.32808e-06 -3.54015
377 1 25.5668 3.93078 -3.1575 3.14322e-06 -3.54019
378 1 24.5642 5.4331 -1.35 3.31762e-06 -3.54018
379 1 23.5616 6.93604 0.4575 3.41674e-06 -3.54016
380 1 22.559 8.43972 2.265 3.50618e-06 -3.54015
381 1 26.0681 6.441 -3.1575 2.20185e-06 -3.54018
382 1 25.0655 7.94431 -1.35 2.25004e-06 -3.54017
383 1 24.0629 9.44825 0.4575 2.31305e-06 -3.54012
384 1 23.0603 10.9529 2.265 4.54621e-06 -3.54044
385 1 26.5694 8.95193 -3.1575 1.51974e-06 -3.54018
386 1 25.5668 10.4561 -1.35 1.56846e-06 -3.54019
387 1 24.5642 11.9608 0.4575 1.74178e-05 -3.5407
388 1 27.0708 11.4633 -3.1575 1.37492e-06 -3.54041
389 1 26.0681 12.968 -1.35 5.36091e-05 -3.54051
390 1 21.055 -12.1046 2.265 0.000330249 -3.5401
391 1 23.5616 -12.6005 -1.35 0.000389366 -3.54034
392 1 22.559 -11.102 0.4575 3.80829e-05 -3.53961
393 1 21.5563 -9.60398 2.265 4.88017e-06 -3.53994
394 1 25.0655 -11.5977 -3.1575 7.212e-05 -3.53988
395 1 24.0629 -10.0986 -1.35 2.86105e-06 -3.5398
396 1 23.0603 -8.60013 0.4575 4.24535e-06 -3.54021
397 1 22.0577 -7.10211 2.265 6.30994e-06 -3.54019
398 1 25.5668 -9.09486 -3.1575 2.50396e-06 -3.54015
399 1 24.5642 -7.59578 -1.35 3.58917e-06 -3.5402
400 1 23.5616 -6.09705 0.4575 5.11672e-06 -3.5402
401 1 22.559 -4.59862 2.265 7.20022e-06 -3.54019
402 1 26.0681 -6.59107 -3.1575 2.95633e-06 -3.5402
403 1 25.0655 -5.09167 -1.35 4.04597e-06 -3.5402
404 1 24.0629 -3.59243 0.4575 5.4414e-06 -3.5402
405 1 23.0603 -2.09327 2.265 7.13596e-06 -3.54019
406 1 26.5694 -4.08612 -3.1575 3.13736e-06 -3.54021
407 1 25.5668 -2.58617 -1.35 4.04741e-06 -3.5402
408 1 24.5642 -1.08619 0.4575 5.08127e-06 -3.5402
409 1 23.5616 0.413947 2.265 6.16465e-06 -3.54019
410 1 27.0708 -1.57994 -3.1575 2.9796e-06 -3.5402
411 1 26.0681 -0.079265 -1.35 3.59905e-06 -3.5402
412 1 25.0655 1.42162 0.4575 4.20283e-06 -3.54019
413 1 24.0629 2.92285 2.265 4.72348e-06 -3.54018
414 1 27.5721 0.927455 -3.1575 2.54709e-06 -3.5402
415 1 26.5694 2.42894 -1.35 2.87949e-06 -3.5402
416 1 25.5668 3.93078 0.4575 3.14322e-06 -3.54019
417 1 24.5642 5.4331 2.265 3.31762e-06 -3.54018
418 1 28.0734 3.43592 -3.1575 1.98876e-06 -3.5402
419 1 27.0708 4.93824 -1.35 2.12126e-06 -3.54019
420 1 26.0681 6.441 0.4575 2.20185e-06 -3.54018
421 1 25.0655 7.94431 2.265 2.25004e-06 -3.54017
422 1 28.5747 5.94525 -3.1575 1.454e-06 -3.5402
423 1 27.5721 7.44835 -1.35 1.49216e-06 -3.54019
424 1 26.5694 8.95193 0.4575 1.51974e-06 -3.54018
425 1 25.5668 10.4561 2.265 1.56846e-06 -3.54019
426 1 29.076 8.45523 -3.1575 1.03217e-06 -3.5402
427 1 28.0734 9.959 -1.35 1.05098e-06 -3.54018
428 1 27.0708 11.4633 0.4575 1.37492e-06 -3.54041
429 1 26.0681 12.968 2.265 5.36091e-05 -3.54051
430 1 29.5773 10.9656 -3.1575 1.69671e-06 -3.54036
431 1 28.5747 12.4699 -1.35 1.23967e-05 -3.54057
432 1 23.5616 -12.6005 2.265 0.000389366 -3.54034
433 1 25.0655 -11.5977 0.4575 7.212e-05 -3.53988
434 1 24.0629 -10.0986 2.265 2.86105e-06 -3.5398
435 1 27.5721 -12.0941 -3.1575 0.000104048 -3.54015
436 1 26.5694 -10.5943 -1.35 6.02747e-06 -3.53993
437 1 25.5668 -9.09486 0.4575 2.50396e-06 -3.54015
438 1 24.5642 -7.59578 2.265 3.58917e-06 -3.5402
439 1 28.0734 -9.59058 -3.1575 1.53782e-06 -3.54007
440 1 27.0708 -8.0907 -1.35 2.13732e-06 -3.54021
441 1 26.0681 -6.59107 0.4575 2.95633e-06 -3.5402
442 1 25.0655 -5.09167 2.265 4.04597e-06 -3.5402
443 1 28.5747 -7.08628 -3.1575 1.78381e-06 -3.54021
444 1 27.5721 -5.58614 -1.35 2.38267e-06 -3.54021
445 1 26.5694 -4.08612 0.4575 3.13736e-06 -3.54021
446 1 25.5668 -2.58617 2.265 4.04741e-06 -3.5402
447 1 29.076 -4.58107 -3.1575 1.88777e-06 -3.54021
448 1 28.0734 -3.08051 -1.35 2.39832e-06 -3.54021
449 1 27.0708 -1.57994 0.4575 2.9796e-06 -3.5402
450 1 26.0681 -0.079265 2.265 3.59905e-06 -3.5402
451 1 29.5773 -2.0749 -3.1575 1.81575e-06 -3.54021
452 1 28.5747 -0.573794 -1.35 2.18108e-06 -3.54021
453 1 27.5721 0.927455 0.4575 2.54709e-06 -3.5402
454 1 26.5694 2.42894 2.265 2.87949e-06 -3.5402
455 1 30.0786 0.43221 -3.1575 1.59354e-06 -3.54021
456 1 29.076 1.93394 -1.35 1.80749e-06 -3.5402
457 1 28.0734 3.43592 0.4575 1.98876e-06 -3.5402
458 1 27.0708 4.93824 2.265 2.12126e-06 -3.54019
459 1 30.5799 2.94018 -3.1575 1.2896e-06 -3.5402
460 1 29.5773 4.44256 -1.35 1.38772e-06 -3.5402
461 1 28.5747 5.94525 0.4575 1.454e-06 -3.5402
462 1 27.5721 7.44835 2.265 1.49216e-06 -3.54019
463 1 31.0812 5.44887 -3.1575 9.79752e-07 -3.5402
464 1 30.0786 6.95187 -1.35 1.01297e-06 -3.5402
465 1 29.076 8.45523 0.4575 1.03217e-06 -3.5402
466 1 28.0734 9.959 2.265 1.05098e-06 -3.54018
467 1 31.5825 7.95812 -3.1575 7.17386e-07 -3.5402
468 1 30.5799 9.46168 -1.35 7.28169e-07 -3.54017
469 1 29.5773 10.9656 0.4575 1.69671e-06 -3.54036
470 1 28.5747 12.4699 2.265 1.23967e-05 -3.54057
471 1 32.0839 10.4678 -3.1575 5.23312e-07 -3.54021
472 1 31.0812 11.9718 -1.35 5.42255e-06 -3.54051
473 1 32.5852 12.9776 -3.1575 1.85983e-05 -3.54039
474 1 27.5721 -12.0941 0.4575 0.000104048 -3.54015
475 1 26.5694 -10.5943 2.265 6.02747e-06 -3.53993
476 1 30.0786 -12.5912 -3.1575 0.00013131 -3.54029
477 1 29.076 -11.0907 -1.35 1.17293e-05 -3.53987
478 1 28.0734 -9.59058 0.4575 1.53782e-06 -3.54007
479 1 27.0708 -8.0907 2.265 2.13732e-06 -3.54021
480 1 30.5799 -10.0871 -3.1575 9.77867e-07 -3.53998
481 1 29.5773 -8.58659 -1.35 1.32359e-06 -3.54022
482 1 28.5747 -7.08628 0.4575 1.78381e-06 -3.54021
483 1 27.5721 -5.58614 2.265 2.38267e-06 -3.54021
484 1 31.0812 -7.58241 -3.1575 1.11726e-06 -3.54021
485 1 30.0786 -6.08169 -1.35 1.46101e-06 -3.54021
486 1 29.076 -4.58107 0.4575 1.88777e-06 -3.54021
487 1 28.0734 -3.08051 2.265 2.39832e-06 -3.54021
488 1 31.5825 -5.07699 -3.1575 1.17882e-06 -3.54021
489 1 30.5799 -3.57595 -1.35 1.4767e-06 -3.54021
490 1 29.5773 -2.0749 0.4575 1.81575e-06 -3.54021
491 1 28.5747 -0.573794 2.265 2.18108e-06 -3.54021
492 1 32.0839 -2.57082 -3.1575 1.14487e-06 -3.54021
493 1 31.0812 -1.06935 -1.35 1.36678e-06 -3.54021
494 1 30.0786 0.43221 0.4575 1.59354e-06 -3.54021
495 1 29.076 1.93394 2.265 1.80749e-06 -3.5402
496 1 32.5852 -0.0639013 -3.1575 1.02618e-06 -3.54021
497 1 31.5825 1.43805 -1.35 1.16557e-06 -3.54021
498 1 30.5799 2.94018 0.4575 1.2896e-06 -3.5402
499 1 29.5773 4.44256 2.265 1.38772e-06 -3.5402
500 1 33.0865 2.44371 -3.1575 8.5551e-07 -3.54021
501 1 32.0839 3.94617 -1.35 9.26939e-07 -3.54021
502 1 31.0812 5.44887 0.4575 9.79752e-07 -3.5402
503 1 30.0786 6.95187 2.265 1.01297e-06 -3.5402
504 1 33.5878 4.95193 -3.1575 6.72167e-07 -3.54021
505 1 32.5852 6.45489 -1.35 7.00504e-07 -3.5402
506 1 31.5825 7.95812 0.4575 7.17386e-07 -3.5402
507 1 30.5799 9.46168 2.265 7.28169e-07 -3.54017
508 1 34.0891 7.46063 -3.1575 5.07417e-07 -3.54021
509 1 33.0865 8.96405 -1.35 5.16309e-07 -3.5402
510 1 32.0839 10.4678 0.4575 5.23312e-07 -3.54021
511 1 31.0812 11.9718 2.265 5.42255e-06 -3.54051
512 1 34.5904 9.96969 -3.1575 3.77417e-07 -3.5402
513 1 33.5878 11.4735 -1.35 4.19348e-07 -3.54034
514 1 32.5852 12.9776 0.4575 1.85983e-05 -3.54039
515 1 35.0917 12.479 -3.1575 4.49524e-06 -3.54044
516 1 30.0786 -12.5912 0.4575 0.00013131 -3.54029
517 1 29.076 -11.0907 2.265 1.17293e-05 -3.53987
518 1 31.5825 -11.5878 -1.35 2.40756e-05 -3.54002
519 1 30.5799 -10.0871 0.4575 9.77867e-07 -3.53998
520 1 29.5773 -8.58659 2.265 1.32359e-06 -3.54022
521 1 33.0865 -10.5843 -3.1575 1.96746e-06 -3.54004
522 1 32.0839 -9.08325 -1.35 8.47875e-07 -3.54018
523 1 31.0812 -7.58241 0.4575 1.11726e-06 -3.54021
524 1 30.0786 -6.08169 2.265 1.46101e-06 -3.54021
525 1 33.5878 -8.07926 -3.1575 7.22837e-07 -3.54022
526 1 32.5852 -6.57809 -1.35 9.27801e-07 -3.54021
527 1 31.5825 -5.07699 0.4575 1.17882e-06 -3.54021
528 1 30.5799 -3.57595 2.265 1.4767e-06 -3.54021
529 1 34.0891 -5.57369 -3.1575 7.60385e-07 -3.54021
530 1 33.0865 -4.07225 -1.35 9.40367e-07 -3.54021
531 1 32.0839 -2.57082 0.4575 1.14487e-06 -3.54021
532 1 31.0812 -1.06935 2.265 1.36678e-06 -3.54021
533 1 34.5904 -3.0675 -3.1575 7.44005e-07 -3.54021
534 1 33.5878 -1.56574 -1.35 8.82574e-07 -3.54021
535 1 32.5852 -0.0639013 0.4575 1.02618e-06 -3.54021
536 1 31.5825 1.43805 2.265 1.16557e-06 -3.54021
537 1 35.0917 -0.560713 -3.1575 6.78353e-07 -3.54021
538 1 34.0891 0.941436 -1.35 7.70468e-07 -3.54021
539 1 33.0865 2.44371 0.4575 8.5551e-07 -3.54021
540 1 32.0839 3.94617 2.265 9.26939e-07 -3.54021
541 1 35.593 1.94664 -3.1575 5.79673e-07 -3.54021
542 1 34.5904 3.4492 -1.35 6.31248e-07 -3.54021
543 1 33.5878 4.95193 0.4575 6.72167e-07 -3.54021
544 1 32.5852 6.45489 2.265 7.00504e-07 -3.5402
545 1 36.0943 4.4545 -3.1575 4.68857e-07 -3.54021
546 1 35.0917 5.95746 -1.35 4.92202e-07 -3.54021
547 1 34.0891 7.46063 0.4575 5.07417e-07 -3.54021
548 1 33.0865 8.96405 2.265 5.16309e-07 -3.5402
549 1 36.5957 6.96278 -3.1575 3.64164e-07 -3.54021
550 1 35.593 8.46612 -1.35 3.72399e-07 -3.54021
551 1 34.5904 9.96969 0.4575 3.77417e-07 -3.5402
552 1 33.5878 11.4735 2.265 4.19348e-07 -3.54034
553 1 37.097 9.47138 -3.1575 2.76857e-07 -3.54019
554 1 36.0943 10.9751 -1.35 6.88581e-07 -3.54031
555 1 35.0917 12.479 0.4575 4.49524e-06 -3.54044
556 1 37.5983 11.9802 -3.1575 1.96402e-06 -3.5404
557 1 31.5825 -11.5878 2.265 2.40756e-05 -3.54002
558 1 34.0891 -12.0854 -1.35 3.74647e-05 -3.54018
559 1 33.0865 -10.5843 0.4575 1.96746e-06 -3.54004
560 1 32.0839 -9.08325 2.265 8.47875e-07 -3.54018
561 1 35.593 -11.0819 -3.1575 4.20351e-06 -3.54
562 1 34.5904 -9.58053 -1.35 5.59404e-07 -3.54013
563 1 33.5878 -8.07926 0.4575 7.22837e-07 -3.54022
564 1 32.5852 -6.57809 2.265 9.27801e-07 -3.54021
565 1 36.0943 -8.5767 -3.1575 4.81112e-07 -3.54022
566 1 35.0917 -7.07516 -1.35 6.07497e-07 -3.54021
567 1 34.0891 -5.57369 0.4575 7.60385e-07 -3.54021
568 1 33.0865 -4.07225 2.265 9.40367e-07 -3.54021
569 1 36.5957 -6.07099 -3.1575 5.04655e-07 -3.54021
570 1 35.593 -4.56924 -1.35 6.16856e-07 -3.54021
571 1 34.5904 -3.0675 0.4575 7.44005e-07 -3.54021
572 1 33.5878 -1.56574 2.265 8.82574e-07 -3.54021
573 1 37.097 -3.56479 -3.1575 4.9666e-07 -3.54021
574 1 36.0943 -2.06278 -1.35 5.85425e-07 -3.54021
575 1 35.0917 -0.560713 0.4575 6.78353e-07 -3.54021
576 1 34.0891 0.941436 2.265 7.70468e-07 -3.54021
577 1 37.5983 -1.0581 -3.1575 4.59179e-07 -3.54021
578 1 36.5957 0.444226 -1.35 5.20993e-07 -3.54021
579 1 35.593 1.94664 0.4575 5.79673e-07 -3.54021
580 1 34.5904 3.4492 2.265 6.31248e-07 -3.54021
581 1 38.0996 1.44907 -3.1575 4.00554e-07 -3.54021
582 1 37.097 2.95172 -1.35 4.37729e-07 -3.54021
583 1 36.0943 4.4545 0.4575 4.68857e-07 -3.54021
584 1 35.0917 5.95746 2.265 4.92202e-07 -3.54021
585 1 38.6009 3.95666 -3.1575 3.32165e-07 -3.54021
586 1 37.5983 5.45964 -1.35 3.50879e-07 -3.54021
587 1 36.5957 6.96278 0.4575 3.64164e-07 -3.54021
588 1 35.593 8.46612 2.265 3.72399e-07 -3.54021
589 1 39.1022 6.46461 -3.1575 2.64743e-07 -3.54021
590 1 38.0996 7.96791 -1.35 2.72304e-07 -3.54021
591 1 37.097 9.47138 0.4575 2.76857e-07 -3.54019
592 1 36.0943 10.9751 2.265 6.88581e-07 -3.54031
593 1 39.6035 8.97285 -3.1575 2.05794e-07 -3.54021
594 1 38.6009 10.4764 -1.35 2.08421e-07 -3.54022
595 1 37.5983 11.9802 0.4575 1.96402e-06 -3.5404
596 1 40.1048 11.4813 -3.1575 1.56869e-07 -3.5403
597 1 39.1022 12.9852 -1.35 7.46239e-06 -3.54033
598 1 34.0891 -12.0854 2.265 3.74647e-05 -3.54018
599 1 36.5957 -12.5834 -1.35 5.00887e-05 -3.54027
600 1 35.593 -11.0819 0.4575 4.20351e-06 -3.54
601 1 34.5904 -9.58053 2.265 5.59404e-07 -3.54013
602 1 38.0996 -11.58 -3.1575 9.14925e-06 -3.54009