#LAMMPS data file
3190 atoms
2 atom types
-125.2250000000 125.2250000000 xlo xhi
-13.0340632500 13.0340632500 ylo yhi
-3.6150000000 3.6150000000 zlo zhi
0.0 0.0 0.0 xy xz yz

Atoms # atomic

1 1 0.7813628514 8.0376285251 -3.3949984344
2 1 0.5094355893 10.5623405828 -3.3949984355
3 1 -0.2183191824 13.0067204961 -3.3949984283
4 1 0.7813609118 -11.5134664672 -1.5874984340
5 1 0.7813610427 -4.9964346150 -3.3949984345
6 1 0.5094349404 -2.4717224600 -3.3949984360
7 1 -0.2183178448 -0.0273422372 -3.3949984284
8 1 0.7813629830 1.5205971266 -1.5874984347
9 1 2.1114522713 0.4851913165 -3.3949984394
10 1 0.5094362813 4.0453091155 -1.5874984357
11 1 1.9756292267 3.0343192123 -3.3949984445
12 1 -0.2183175482 6.4896891656 -1.5874984286
13 1 0.7813628513 8.0376285251 0.2200015656
14 1 1.5387854187 5.4830711570 -3.3949984383
15 1 2.1114524259 7.0022228722 -1.5874984390
16 1 0.5094355893 10.5623405826 0.2200015642
17 1 3.2622822666 8.3630644776 -3.3949984523
18 1 1.9756286709 9.5513505620 -1.5874984441
19 1 -0.2183191819 13.0067204961 0.2200015717
20 1 0.7813609117 -11.5134664669 2.0275015656
21 1 3.2622813196 11.0494271993 -3.3949984527
22 1 1.5387845812 12.0001026090 -1.5874984383
23 1 2.1114502857 -12.5488718722 -3.3949984389
24 1 0.5094342497 -8.9887542416 -1.5874984355
25 1 1.9756266494 -9.9997441950 -3.3949984438
26 1 -0.2183194791 -6.5443741549 -1.5874984285
27 1 0.7813610426 -4.9964346152 0.2200015656
28 1 1.5387835007 -7.5509920424 -3.3949984384
29 1 2.1114501287 -6.0318401780 -1.5874984391
30 1 0.5094349403 -2.4717224600 0.2200015637
31 1 3.2622800429 -4.6709977868 -3.3949984530
32 1 1.9756272041 -3.4827122957 -1.5874984445
33 1 -0.2183178453 -0.0273422372 0.2200015713
34 1 0.7813629831 1.5205971265 2.0275015656
35 1 3.2622809913 -1.9846351696 -3.3949984535
36 1 1.5387843376 -1.0339602452 -1.5874984390
37 1 2.1114522723 0.4851913166 0.2200015607
38 1 0.5094362810 4.0453091151 2.0275015643
39 1 4.4131121467 0.4851917848 -3.3949984669
40 1 3.2622823989 1.8460334714 -1.5874984528
41 1 1.9756292270 3.0343192121 0.2200015557
42 1 -0.2183175490 6.4896891655 2.0275015714
43 1 4.5489360455 3.0343191500 -3.3949984615
44 1 3.2622827176 4.5323960065 -1.5874984534
45 1 1.5387854186 5.4830711571 0.2200015616
46 1 2.1114524278 7.0022228724 2.0275015611
47 1 4.9857804391 5.4830707303 -3.3949984666
48 1 4.4131123973 7.0022221551 -1.5874984660
49 1 3.2622822667 8.3630644777 0.2200015482
50 1 1.9756286712 9.5513505623 2.0275015558
51 1 5.7432016945 8.0376279159 -3.3949984696
52 1 4.5489352070 9.5513500520 -1.5874984604
53 1 3.2622813197 11.0494271993 0.2200015477
54 1 1.5387845816 12.0001026090 2.0275015616
55 1 6.0151273204 10.5623400994 -3.3949984685
56 1 4.9857775748 12.0001023476 -1.5874984661
57 1 2.1114502842 -12.5488718724 0.2200015612
58 1 0.5094342501 -8.9887542420 2.0275015644
59 1 4.4131099101 -12.5488723634 -3.3949984655
60 1 3.2622799109 -11.1880300302 -1.5874984526
61 1 1.9756266494 -9.9997441950 0.2200015557
62 1 -0.2183194798 -6.5443741554 2.0275015715
63 1 4.5489327017 -9.9997441517 -3.3949984608
64 1 3.2622795940 -8.5016672254 -1.5874984531
65 1 1.5387835007 -7.5509920426 0.2200015614
66 1 2.1114501307 -6.0318401776 2.0275015608
67 1 4.9857752678 -7.5509916371 -3.3949984662
68 1 4.4131096610 -6.0318394835 -1.5874984663
69 1 3.2622800427 -4.6709977867 0.2200015475
70 1 1.9756272040 -3.4827122953 2.0275015554
71 1 5.7431990272 -4.9964340322 -3.3949984703
72 1 4.5489335392 -3.4827118043 -1.5874984613
73 1 3.2622809913 -1.9846351699 0.2200015460
74 1 1.5387843378 -1.0339602451 2.0275015612
75 1 6.0151267713 -2.4717220045 -3.3949984697
76 1 4.9857781319 -1.0339600052 -1.5874984674
77 1 4.4131121454 0.4851917851 0.2200015331
78 1 3.2622823993 1.8460334717 2.0275015471
79 1 5.7432019431 1.5205969669 -1.5874984711
80 1 4.5489360453 3.0343191500 0.2200015386
81 1 3.2622827174 4.5323960062 2.0275015469
82 1 6.0151294536 4.0453086265 -1.5874984695
83 1 4.9857804393 5.4830707301 0.2200015333
84 1 4.4131123954 7.0022221553 2.0275015341
85 1 5.7432016944 8.0376279157 0.2200015301
86 1 4.5489352072 9.5513500523 2.0275015396
87 1 6.0151273205 10.5623400994 0.2200015314
88 1 4.9857775746 12.0001023481 2.0275015337
89 1 4.4131099112 -12.5488723636 0.2200015342
90 1 3.2622799109 -11.1880300303 2.0275015478
91 1 5.7431987788 -11.5134663337 -1.5874984697
92 1 4.5489327016 -9.9997441518 0.2200015392
93 1 3.2622795945 -8.5016672261 2.0275015470
94 1 6.0151246392 -8.9887537823 -1.5874984689
95 1 4.9857752679 -7.5509916374 0.2200015333
96 1 4.4131096587 -6.0318394835 2.0275015337
97 1 5.7431990270 -4.9964340326 0.2200015296
98 1 4.5489335386 -3.4827118040 2.0275015385
99 1 6.0151267712 -2.4717220044 0.2200015303
100 1 4.9857781323 -1.0339600050 2.0275015327
101 1 5.7432019433 1.5205969665 2.0275015291
102 1 6.0151294534 4.0453086266 2.0275015305
103 1 5.7431987791 -11.5134663335 2.0275015301
104 1 6.0151246397 -8.9887537821 2.0275015312
105 1 -1.0678953048 11.5247637280 -1.5874984262
106 1 -1.0678953049 11.5247637279 2.0275015739
107 1 -0.5915566625 9.0480855019 -1.5874984292
108 1 -0.5915566627 9.0480855022 2.0275015709
109 1 -1.0678943937 5.0077324219 0.2200015740
110 1 -1.0678943936 5.0077324219 -3.3949984262
111 1 -0.5915563086 2.5310541314 0.2200015705
112 1 -0.5915563085 2.5310541310 -3.3949984288
113 1 -1.0678952106 -1.5092990687 -1.5874984262
114 1 -1.0678952106 -1.5092990686 2.0275015736
115 1 -0.5915578672 -3.9859775811 -1.5874984293
116 1 -0.5915578676 -3.9859775810 2.0275015707
117 1 -1.0678961207 -8.0263310124 0.2200015739
118 1 -1.0678961205 -8.0263310125 -3.3949984263
119 1 -0.5915582195 -10.5030094604 0.2200015710
120 1 -0.5915582194 -10.5030094604 -3.3949984287
121 1 9.1801485948 -0.5118227951 -3.3949984854
122 1 8.1918554644 1.0036486523 -1.5874984810
123 1 7.1161217712 2.5310537213 0.2200015245
124 1 6.0151294534 4.0453086266 2.0275015305
125 1 9.6385518698 2.0155816450 -3.3949984863
126 1 8.5931646575 3.5239245227 -1.5874984814
127 1 7.5924602413 5.0077318336 0.2200015225
128 1 6.7428827097 6.4896885997 2.0275015242
129 1 10.1286967478 4.5115221179 -3.3949984884
130 1 9.1801497197 6.0052080933 -1.5874984847
131 1 8.1918553252 7.5206797669 0.2200015193
132 1 7.1161206180 9.0480849857 2.0275015257
133 1 10.6696720598 7.0192529465 -3.3949984905
134 1 9.6385505302 8.5326129661 -1.5874984856
135 1 8.5931622577 10.0409561323 0.2200015193
136 1 7.5924571532 11.5247636199 2.0275015233
137 1 11.1291835168 9.5319477994 -3.3949984912
138 1 10.1286931788 11.0285540353 -1.5874984874
139 1 9.1801459929 12.5222402055 0.2200015157
140 1 11.6624119680 12.0287122941 -3.3949984931
141 1 5.7431987791 -11.5134663335 2.0275015301
142 1 8.1918517166 -12.0304144415 -1.5874984799
143 1 7.1161173789 -10.5030090824 0.2200015253
144 1 6.0151246397 -8.9887537821 2.0275015312
145 1 9.6385465672 -11.0184809601 -3.3949984849
146 1 8.5931590616 -9.5101377958 -1.5874984809
147 1 7.5924548959 -8.0263304571 0.2200015227
148 1 6.7428789327 -6.5443736194 2.0275015245
149 1 10.1286905604 -8.5225398743 -3.3949984875
150 1 9.1801448693 -7.0288539337 -1.5874984847
151 1 8.1918518552 -5.5133823068 0.2200015195
152 1 7.1161185312 -3.9859770969 2.0275015249
153 1 10.6696676684 -6.0148088207 -3.3949984904
154 1 9.6385479049 -4.5014490318 -1.5874984858
155 1 8.5931614588 -2.9931061554 0.2200015185
156 1 7.5924579834 -1.5092989934 2.0275015220
157 1 11.1291824494 -3.5021142940 -3.3949984922
158 1 10.1286941272 -2.0055085422 -1.5874984883
159 1 9.1801485946 -0.5118227953 0.2200015149
160 1 8.1918554640 1.0036486518 2.0275015190
161 1 11.6624150470 -1.0053506598 -3.3949984947
162 1 10.6696721058 0.5022219420 -1.5874984907
163 1 9.6385518697 2.0155816450 0.2200015138
164 1 8.5931646575 3.5239245219 2.0275015186
165 1 12.1501006380 1.5092770263 -3.3949984959
166 1 11.1291863162 3.0149161830 -1.5874984925
167 1 10.1286967476 4.5115221177 0.2200015119
168 1 9.1801497189 6.0052080932 2.0275015152
169 1 12.6457238336 4.0119251653 -3.3949984978
170 1 11.6624165572 5.5116800149 -1.5874984944
171 1 10.6696720598 7.0192529463 0.2200015098
172 1 9.6385505302 8.5326129661 2.0275015143
173 1 13.1630946087 6.5184297655 -3.3949984998
174 1 12.1500990794 8.0263082488 -1.5874984955
175 1 11.1291835165 9.5319477994 0.2200015088
176 1 10.1286931780 11.0285540357 2.0275015130
177 1 13.6476339034 9.0277343159 -3.3949985011
178 1 12.6457195511 10.5289571454 -1.5874984972
179 1 11.6624119678 12.0287122938 0.2200015066
180 1 14.1607512901 11.5304555953 -3.3949985025
181 1 13.1630891177 -13.0326640398 -1.5874984989
182 1 8.1918517169 -12.0304144417 2.0275015200
183 1 10.6696676223 -12.5318410658 -1.5874984894
184 1 9.6385465672 -11.0184809601 0.2200015148
185 1 8.5931590609 -9.5101377961 2.0275015195
186 1 12.1500942214 -11.5247854406 -3.3949984949
187 1 11.1291796539 -10.0191459269 -1.5874984909
188 1 10.1286905602 -8.5225398744 0.2200015123
189 1 9.1801448689 -7.0288539340 2.0275015152
190 1 12.6457163524 -9.0221364868 -3.3949984976
191 1 11.6624104610 -7.5223816320 -1.5874984938
192 1 10.6696676684 -6.0148088209 0.2200015097
193 1 9.6385479046 -4.5014490316 2.0275015139
194 1 13.1630890656 -6.5156315876 -3.3949984999
195 1 12.1500957774 -5.0077534154 -1.5874984960
196 1 11.1291824498 -3.5021142940 0.2200015080
197 1 10.1286941271 -2.0055085415 2.0275015117
198 1 13.6476324856 -4.0063274432 -3.3949985015
199 1 12.6457206286 -2.5051052175 -1.5874984985
200 1 11.6624150469 -1.0053506598 0.2200015055
201 1 10.6696721060 0.5022219432 2.0275015091
202 1 14.1607549882 -1.5036072195 -3.3949985037
203 1 13.1630945550 0.0013989697 -1.5874985001
204 1 12.1501006382 1.5092770267 0.2200015039
205 1 11.1291863171 3.0149161833 2.0275015078
206 1 14.6578047467 1.0059773610 -3.3949985058
207 1 13.6476372468 2.5107027488 -1.5874985015
208 1 12.6457238336 4.0119251653 0.2200015019
209 1 11.6624165571 5.5116800149 2.0275015057
210 1 15.1562712755 3.5111359918 -3.3949985070
211 1 14.1607569541 5.0134231667 -1.5874985031
212 1 13.1630946086 6.5184297657 0.2200015006
213 1 12.1500990792 8.0263082495 2.0275015044
214 1 15.6640865297 6.0174859865 -3.3949985094
215 1 14.6578029227 7.5230084275 -1.5874985050
216 1 13.6476339032 9.0277343163 0.2200014991
217 1 12.6457195509 10.5289571460 2.0275015028
218 1 16.1587992451 8.5252227075 -3.3949985109
219 1 15.1562660573 10.0281680198 -1.5874985070
220 1 14.1607512898 11.5304555952 0.2200014971
221 1 13.1630891175 -13.0326640402 2.0275015013
222 1 16.6644357385 11.0302677950 -3.3949985129
223 1 15.6640797093 12.5345189199 -1.5874985088
224 1 10.6696676221 -12.5318410660 2.0275015104
225 1 12.1500942216 -11.5247854408 0.2200015055
226 1 11.1291796534 -10.0191459265 2.0275015090
227 1 14.6577969074 -12.0280849859 -3.3949985048
228 1 13.6476291495 -10.5233591261 -1.5874985008
229 1 12.6457163526 -9.0221364869 0.2200015027
230 1 11.6624104609 -7.5223816319 2.0275015061
231 1 15.1562620568 -9.5229252790 -3.3949985066
232 1 14.1607493299 -8.0206380425 -1.5874985030
233 1 13.1630890655 -6.5156315876 0.2200015005
234 1 12.1500957769 -5.0077534153 2.0275015042
235 1 15.6640795273 -7.0165748687 -3.3949985092
236 1 14.6577987270 -5.5110528034 -1.5874985053
237 1 13.6476324856 -4.0063274430 0.2200014984
238 1 12.6457206282 -2.5051052177 2.0275015019
239 1 16.1587973453 -4.5088386292 -3.3949985114
240 1 15.1562672645 -3.0058940543 -1.5874985077
241 1 14.1607549878 -1.5036072194 0.2200014961
242 1 13.1630945554 0.0013989693 2.0275015001
243 1 16.6644401913 -2.0037948362 -3.3949985141
244 1 15.6640863454 -0.4995445491 -1.5874985100
245 1 14.6578047468 1.0059773605 0.2200014944
246 1 13.6476372468 2.5107027488 2.0275014987
247 1 17.1644547227 0.5038802232 -3.3949985156
248 1 16.1588032814 2.0081912118 -1.5874985115
249 1 15.1562712755 3.5111359915 0.2200014924
250 1 14.1607569538 5.0134231665 2.0275014968
251 1 17.6643955973 3.0099438176 -3.3949985177
252 1 16.6644427452 4.5132352014 -1.5874985134
253 1 15.6640865293 6.0174859866 0.2200014908
254 1 14.6578029228 7.5230084275 2.0275014950
255 1 18.1683266353 5.5163441655 -3.3949985196
256 1 17.1644525835 7.0209110945 -1.5874985152
257 1 16.1587992449 8.5252227074 0.2200014891
258 1 15.1562660574 10.0281680203 2.0275014932
259 1 18.6670635539 8.0233892075 -3.3949985216
260 1 17.6643891975 9.5269758951 -1.5874985170
261 1 16.6644357384 11.0302677950 0.2200014865
262 1 15.6640797095 12.5345189197 2.0275014911
263 1 19.1699339549 10.5293447842 -3.3949985239
264 1 18.1683181428 12.0333773900 -1.5874985192
265 1 19.6708613239 -13.0318201800 -3.3949985257
266 1 14.6577969073 -12.0280849861 0.2200014957
267 1 13.6476291499 -10.5233591264 2.0275014992
268 1 17.1644450850 -12.5301819793 -3.3949985151
269 1 16.1587933202 -11.0258703846 -1.5874985107
270 1 15.1562620571 -9.5229252789 0.2200014931
271 1 14.1607493306 -8.0206380429 2.0275014972
272 1 17.6643841414 -10.0241169945 -3.3949985173
273 1 16.6644331950 -8.5208254962 -1.5874985131
274 1 15.6640795274 -7.0165748688 0.2200014907
275 1 14.6577987268 -5.5110528029 2.0275014946
276 1 18.1683177749 -7.5177160799 -3.3949985194
277 1 17.1644472182 -6.0131496017 -1.5874985154
278 1 16.1587973452 -4.5088386295 0.2200014885
279 1 15.1562672644 -3.0058940545 2.0275014922
280 1 18.6670609976 -5.0106716023 -3.3949985213
281 1 17.6643905249 -3.5070858200 -1.5874985174
282 1 16.6644401913 -2.0037948363 0.2200014861
283 1 15.6640863458 -0.4995445497 2.0275014903
284 1 19.1699393156 -2.5047176163 -3.3949985239
285 1 18.1683262628 -1.0006860516 -1.5874985196
286 1 17.1644547224 0.5038802231 0.2200014841
287 1 16.1588032812 2.0081912116 2.0275014886
288 1 19.6708732149 0.0022418403 -3.3949985259
289 1 18.6670684501 1.5063578011 -1.5874985220
290 1 17.6643955972 3.0099438171 0.2200014828
291 1 16.6644427448 4.5132352015 2.0275014864
292 1 20.1715421972 2.5086214876 -3.3949985290
293 1 19.1699426391 4.0123119910 -1.5874985239
294 1 18.1683266353 5.5163441653 0.2200014805
295 1 17.1644525836 7.0209110942 2.0275014845
296 1 20.6738953149 5.0150815335 -3.3949985302
297 1 19.6708707065 6.5192724672 -1.5874985257
298 1 18.6670635541 8.0233892075 0.2200014787
299 1 17.6643891973 9.5269758953 2.0275014827
300 1 21.1742005651 7.5218307560 -3.3949985321
301 1 20.1715343221 9.0256536257 -1.5874985278
302 1 19.1699339551 10.5293447843 0.2200014765
303 1 18.1683181427 12.0333773903 2.0275014807
304 1 21.6760562966 10.0281429395 -3.3949985343
305 1 20.6738847223 11.5321151223 -1.5874985301
306 1 19.6708613241 -13.0318201798 0.2200014741
307 1 22.1772544447 12.5348381705 -3.3949985369
308 1 17.1644450851 -12.5301819790 0.2200014845
309 1 16.1587933206 -11.0258703841 2.0275014893
310 1 18.6670561180 -11.5277034475 -1.5874985218
311 1 17.6643841417 -10.0241169946 0.2200014826
312 1 16.6644331951 -8.5208254960 2.0275014868
313 1 20.1715279020 -10.5254387545 -3.3949985281
314 1 19.1699306480 -9.0217480790 -1.5874985238
315 1 18.1683177752 -7.5177160799 0.2200014808
316 1 17.1644472184 -6.0131496013 2.0275014845
317 1 20.6738840877 -8.0189779508 -3.3949985305
318 1 19.6708638244 -6.5147875596 -1.5874985257
319 1 18.6670609977 -5.0106716019 0.2200014784
320 1 17.6643905255 -3.5070858198 2.0275014824
321 1 21.1741971274 -5.5122293898 -3.3949985323
322 1 20.1715357513 -4.0084076375 -1.5874985281
323 1 19.1699393160 -2.5047176162 0.2200014759
324 1 18.1683262633 -1.0006860509 2.0275014800
325 1 21.6760627469 -3.0059191661 -3.3949985343
326 1 20.6738946728 -1.5019482839 -1.5874985300
327 1 19.6708732150 0.0022418402 0.2200014734
328 1 18.6670684501 1.5063578011 2.0275014781
329 1 22.1772691470 -0.4992265350 -3.3949985355
330 1 21.1742065192 1.0047994637 -1.5874985324
331 1 20.1715421974 2.5086214871 0.2200014719
332 1 19.1699426396 4.0123119917 2.0275014757
333 1 22.6782819550 2.0072601328 -3.3949985384
334 1 21.6760670759 3.5111099009 -1.5874985346
335 1 20.6738953151 5.0150815333 0.2200014697
336 1 19.6708707066 6.5192724678 2.0275014743
337 1 23.1799964060 4.5137584164 -3.3949985396
338 1 22.1772662096 6.0178037836 -1.5874985360
339 1 21.1742005651 7.5218307561 0.2200014678
340 1 20.1715343226 9.0256536261 2.0275014722
341 1 23.6809066325 7.0203835922 -3.3949985427
342 1 22.6782722465 8.5242923409 -1.5874985385
343 1 21.6760562968 10.0281429395 0.2200014652
344 1 20.6738847223 11.5321151228 2.0275014697
345 1 24.1823931878 9.5268351069 -3.3949985442
346 1 23.1799831781 11.0307924591 -1.5874985406
347 1 22.1772544451 12.5348381706 0.2200014638
348 1 24.6836635207 12.0334319234 -3.3949985465
349 1 18.6670561182 -11.5277034474 2.0275014783
350 1 21.1741911991 -12.0292613495 -1.5874985327
351 1 20.1715279020 -10.5254387547 0.2200014712
352 1 19.1699306485 -9.0217480795 2.0275014759
353 1 22.6782640755 -11.0267993985 -3.3949985389
354 1 21.6760519945 -9.5229493872 -1.5874985347
355 1 20.6738840878 -8.0189779510 0.2200014698
356 1 19.6708638243 -6.5147875597 2.0275014742
357 1 23.1799821679 -8.5203001119 -3.3949985404
358 1 22.1772573700 -7.0162554016 -1.5874985363
359 1 21.1741971275 -5.5122293901 0.2200014679
360 1 20.1715357507 -4.0084076377 2.0275014720
361 1 23.6809020234 -6.0136757118 -3.3949985424
362 1 22.6782737419 -4.5097683481 -1.5874985383
363 1 21.6760627466 -3.0059191665 0.2200014661
364 1 20.6738946727 -1.5019482835 2.0275014698
365 1 24.1824009435 -3.5072266143 -3.3949985440
366 1 23.1799953820 -2.0032708935 -1.5874985397
367 1 22.1772691471 -0.4992265351 0.2200014635
368 1 21.1742065198 1.0047994629 2.0275014678
369 1 24.6836817206 -1.0006330525 -3.3949985461
370 1 23.6809138838 0.5033524508 -1.5874985420
371 1 22.6782819550 2.0072601327 0.2200014621
372 1 21.6760670768 3.5111099013 2.0275014654
373 1 25.1848514772 1.5058884785 -3.3949985480
374 1 24.1824065827 3.0098017698 -1.5874985439
375 1 23.1799964063 4.5137584162 0.2200014602
376 1 22.1772662092 6.0178037836 2.0275014637
377 1 25.6863086723 4.0124072403 -3.3949985500
378 1 24.6836782898 5.5163968686 -1.5874985460
379 1 23.6809066328 7.0203835923 0.2200014580
380 1 22.6782722470 8.5242923413 2.0275014615
381 1 26.1874499924 6.5189811383 -3.3949985524
382 1 25.1848394970 8.0229207625 -1.5874985486
383 1 24.1823931879 9.5268351072 0.2200014553
384 1 23.1799831784 11.0307924589 2.0275014596
385 1 26.6888029214 9.0254869799 -3.3949985550
386 1 25.6862921405 10.5294418435 -1.5874985508
387 1 24.6836635206 12.0334319235 0.2200014533
388 1 27.1900879620 11.5320478836 -3.3949985574
389 1 26.1874350638 -13.0321094118 -1.5874985530
390 1 21.1741911990 -12.0292613492 2.0275014674
391 1 23.6808948134 -12.5307078231 -1.5874985426
392 1 22.6782640756 -11.0267993986 0.2200014615
393 1 21.6760519950 -9.5229493874 2.0275014652
394 1 25.1848290878 -11.5281701703 -3.3949985489
395 1 24.1823875929 -10.0242565425 -1.5874985446
396 1 23.1799821679 -8.5203001120 0.2200014596
397 1 22.1772573701 -7.0162554021 2.0275014637
398 1 25.6862906061 -9.0216500882 -3.3949985506
399 1 24.6836669324 -7.5176612544 -1.5874985466
400 1 23.6809020233 -6.0136757114 0.2200014578
401 1 22.6782737414 -4.5097683483 2.0275014618
402 1 26.1874438317 -6.5150770967 -3.3949985534
403 1 25.1848410001 -5.0111391908 -1.5874985487
404 1 24.1824009433 -3.5072266142 0.2200014557
405 1 23.1799953818 -2.0032708941 2.0275014601
406 1 26.6888122364 -4.0085742402 -3.3949985547
407 1 25.6863071150 -2.5046214242 -1.5874985503
408 1 24.6836817208 -1.0006330525 0.2200014542
409 1 23.6809138836 0.5033524497 2.0275014579
410 1 27.1901105073 -1.5020174120 -3.3949985564
411 1 26.1874588253 0.0019501989 -1.5874985518
412 1 25.1848514772 1.5058884788 0.2200014522
413 1 24.1824065828 3.0098017694 2.0275014563
414 1 27.6913502912 1.0045147625 -3.3949985580
415 1 26.6888195775 2.5084532797 -1.5874985538
416 1 25.6863086725 4.0124072401 0.2200014498
417 1 24.6836782896 5.5163968683 2.0275014540
418 1 28.1927043044 3.5110435025 -3.3949985607
419 1 27.1901065159 5.0150119966 -1.5874985563
420 1 26.1874499921 6.5189811382 0.2200014475
421 1 25.1848394973 8.0229207628 2.0275014515
422 1 28.6939326318 6.0175964600 -3.3949985630
423 1 27.6913354994 7.5215471253 -1.5874985590
424 1 26.6888029214 9.0254869798 0.2200014450
425 1 25.6862921404 10.5294418435 2.0275014492
426 1 29.1952368053 8.5241235409 -3.3949985663
427 1 28.1926836316 10.0280787968 -1.5874985619
428 1 27.1900879617 11.5320478832 0.2200014425
429 1 26.1874350636 -13.0321094120 2.0275014469
430 1 29.6965215760 11.0306717036 -3.3949985688
431 1 28.6939137681 12.5346334914 -1.5874985640
432 1 23.6808948142 -12.5307078224 2.0275014576
433 1 25.1848290881 -11.5281701703 0.2200014510
434 1 24.1823875940 -10.0242565420 2.0275014556
435 1 27.6913222345 -12.0295427944 -3.3949985597
436 1 26.6887956536 -10.5256038137 -1.5874985554
437 1 25.6862906062 -9.0216500884 0.2200014484
438 1 24.6836669327 -7.5176612548 2.0275014531
439 1 28.1926813754 -9.5230123236 -3.3949985621
440 1 27.1900919250 -8.0190447856 -1.5874985577
441 1 26.1874438316 -6.5150770966 0.2200014474
442 1 25.1848409999 -5.0111391903 2.0275014515
443 1 28.6939244271 -7.0164604198 -3.3949985637
444 1 27.6913369182 -5.5125118869 -1.5874985592
445 1 26.6888122362 -4.0085742401 0.2200014454
446 1 25.6863071151 -2.5046214240 2.0275014498
447 1 29.1952479767 -4.5099370245 -3.3949985655
448 1 28.1927020073 -3.0059843407 -1.5874985608
449 1 27.1901105073 -1.5020174120 0.2200014441
450 1 26.1874588255 0.0019501991 2.0275014483
451 1 29.6965495111 -2.0033939633 -3.3949985669
452 1 28.6939433926 -0.4994342065 -1.5874985622
453 1 27.6913502911 1.0045147625 0.2200014419
454 1 26.6888195775 2.5084532795 2.0275014462
455 1 30.1978202812 0.5031409560 -3.3949985691
456 1 29.1952575277 2.0070894043 -1.5874985650
457 1 28.1927043046 3.5110435022 0.2200014397
458 1 27.1901065158 5.0150119961 2.0275014434
459 1 30.6991329535 3.0096741994 -3.3949985713
460 1 29.6965448945 4.5136347848 -1.5874985669
461 1 28.6939326317 6.0175964604 0.2200014371
462 1 27.6913354989 7.5215471249 2.0275014411
463 1 31.2003929727 5.5162187188 -3.3949985739
464 1 30.1978020115 7.0201733974 -1.5874985701
465 1 29.1952368053 8.5241235408 0.2200014341
466 1 28.1926836314 10.0280787968 2.0275014384
467 1 31.7016783614 8.0227542643 -3.3949985762
468 1 30.6991070935 9.5267103439 -1.5874985727
469 1 29.6965215759 11.0306717035 0.2200014318
470 1 28.6939137679 12.5346334914 2.0275014360
471 1 32.2029596554 10.5292982759 -3.3949985792
472 1 31.2003691332 12.0332570971 -1.5874985752
473 1 32.7042349403 -13.0322872282 -3.3949985816
474 1 27.6913222348 -12.0295427948 0.2200014403
475 1 26.6887956535 -10.5256038136 2.0275014448
476 1 30.1977851100 -12.5309152534 -3.3949985710
477 1 29.1952273745 -11.0269661736 -1.5874985667
478 1 28.1926813752 -9.5230123237 0.2200014379
479 1 27.1900919246 -8.0190447863 2.0275014427
480 1 30.6991038490 -10.0243797481 -3.3949985736
481 1 29.6965261527 -8.5204203127 -1.5874985683
482 1 28.6939244268 -7.0164604198 0.2200014364
483 1 27.6913369185 -5.5125118866 2.0275014410
484 1 31.2003820796 -7.5178364502 -3.3949985746
485 1 30.1978032084 -6.0138844136 -1.5874985703
486 1 29.1952479767 -4.5099370247 0.2200014343
487 1 28.1927020076 -3.0059843408 2.0275014392
488 1 31.7016917316 -5.0113054549 -3.3949985759
489 1 30.6991296378 -3.5073525997 -1.5874985718
490 1 29.6965495114 -2.0033939634 0.2200014328
491 1 28.6939433928 -0.4994342064 2.0275014376
492 1 32.2029942664 -2.5047678272 -3.3949985771
493 1 31.2004060762 -1.0008115859 -1.5874985732
494 1 30.1978202813 0.5031409563 0.2200014311
495 1 29.1952575273 2.0070894043 2.0275014353
496 1 32.7042790348 0.0017673143 -3.3949985794
497 1 31.7017041485 1.5057195977 -1.5874985751
498 1 30.6991329532 3.0096741995 0.2200014288
499 1 29.6965448949 4.5136347848 2.0275014329
500 1 33.2055750008 2.5083023697 -3.3949985810
501 1 32.2029889648 4.0122600736 -1.5874985774
502 1 31.2003929728 5.5162187189 0.2200014264
503 1 30.1978020111 7.0201733974 2.0275014301
504 1 33.7068454073 5.0148435572 -3.3949985833
505 1 32.7042564671 6.5187998322 -1.5874985800
506 1 31.7016783615 8.0227542641 0.2200014232
507 1 30.6991070935 9.5267103435 2.0275014271
508 1 34.2081221292 7.5213827111 -3.3949985853
509 1 33.2055426484 9.0253395651 -1.5874985826
510 1 32.2029596555 10.5292982760 0.2200014210
511 1 31.2003691329 12.0332570973 2.0275014245
512 1 34.7093994303 10.0279258101 -3.3949985886
513 1 33.7068152855 11.5318836203 -1.5874985853
514 1 32.7042349405 -13.0322872281 0.2200014181
515 1 35.2106787004 12.5344677405 -3.3949985902
516 1 30.1977851101 -12.5309152535 0.2200014285
517 1 29.1952273747 -11.0269661744 2.0275014332
518 1 31.7016661390 -11.5283340952 -1.5874985775
519 1 30.6991038492 -10.0243797480 0.2200014273
520 1 29.6965261527 -8.5204203127 2.0275014316
521 1 33.2055380627 -10.5257492255 -3.3949985835
522 1 32.2029649031 -9.0217929051 -1.5874985790
523 1 31.2003820796 -7.5178364501 0.2200014252
524 1 30.1978032082 -6.0138844135 2.0275014297
525 1 33.7068309904 -8.0192094455 -3.3949985848
526 1 32.7042572380 -6.5152564483 -1.5874985807
527 1 31.7016917318 -5.0113054549 0.2200014235
528 1 30.6991296378 -3.5073526000 2.0275014283
529 1 34.2081380961 -5.5126759065 -3.3949985861
530 1 33.2055702932 -4.0087231010 -1.5874985818
531 1 32.2029942665 -2.5047678273 0.2200014219
532 1 31.2004060761 -1.0008115867 2.0275014268
533 1 34.7094423054 -3.0061407963 -3.3949985870
534 1 33.7068613529 -1.5021862678 -1.5874985830
535 1 32.7042790348 0.0017673143 0.2200014208
536 1 31.7017041476 1.5057195976 2.0275014247
537 1 35.2107339790 -0.4996062779 -3.3949985880
538 1 34.2081542242 1.0043474042 -1.5874985845
539 1 33.2055750007 2.5083023699 0.2200014188
540 1 32.2029889652 4.0122600738 2.0275014224
541 1 35.7120229567 2.0069292815 -3.3949985903
542 1 34.7094362687 3.5108860120 -1.5874985868
543 1 33.7068454073 5.0148435572 0.2200014164
544 1 32.7042564670 6.5187998327 2.0275014201
545 1 36.2132953436 4.5134692096 -3.3949985918
546 1 35.2107061018 6.0174263058 -1.5874985888
547 1 34.2081221291 7.5213827109 0.2200014144
548 1 33.2055426487 9.0253395651 2.0275014174
549 1 36.7145663464 7.0200101990 -3.3949985938
550 1 35.7119824780 8.5239677721 -1.5874985911
551 1 34.7093994299 10.0279258099 0.2200014116
552 1 33.7068152852 11.5318836206 2.0275014148
553 1 37.2158393810 9.5265536926 -3.3949985962
554 1 36.2132572939 11.0305113762 -1.5874985934
555 1 35.2106787004 12.5344677403 0.2200014092
556 1 37.7171190635 12.0330965892 -3.3949985984
557 1 31.7016661392 -11.5283340958 2.0275014222
558 1 34.2081063140 -12.0297039401 -1.5874985870
559 1 33.2055380629 -10.5257492253 0.2200014167
560 1 32.2029649029 -9.0217929046 2.0275014209
561 1 35.7119760871 -11.0271193690 -3.3949985927
562 1 34.7094053950 -9.5231643001 -1.5874985891
563 1 33.7068309903 -8.0192094454 0.2200014148
564 1 32.7042572375 -6.5152564479 2.0275014194
565 1 36.2132763168 -8.5205810528 -3.3949985936
566 1 35.2107061516 -7.0166280209 -1.5874985900
567 1 34.2081380961 -5.5126759068 0.2200014143
568 1 33.2055702932 -4.0087231008 2.0275014183
569 1 36.7145853637 -6.0140469924 -3.3949985948
570 1 35.7120163583 -4.5100944980 -1.5874985910
571 1 34.7094423056 -3.0061407965 0.2200014127
572 1 33.7068613525 -1.5021862683 2.0275014166
573 1 37.2158924805 -3.5075134936 -3.3949985950
574 1 36.2133147334 -2.0035599792 -1.5874985914
575 1 35.2107339790 -0.4996062778 0.2200014120
576 1 34.2081542238 1.0043474038 2.0275014152
577 1 37.7171883541 -1.0009799732 -3.3949985961
578 1 36.7146062982 0.5029741192 -1.5874985929
579 1 35.7120229567 2.0069292814 0.2200014101
580 1 34.7094362686 3.5108860117 2.0275014133
581 1 38.2184741158 1.5055554205 -3.3949985976
582 1 37.2158856790 3.0095119116 -1.5874985949
583 1 36.2132953433 4.5134692095 0.2200014083
584 1 35.2107061014 6.0174263057 2.0275014114
585 1 38.7197448733 4.0120949304 -3.3949985990
586 1 37.7171539171 5.5160526567 -1.5874985966
587 1 36.7145663464 7.0200101991 0.2200014061
588 1 35.7119824781 8.5239677715 2.0275014088
589 1 39.2210104491 6.5186371885 -3.3949986014
590 1 38.2184234655 8.0225955087 -1.5874985987
591 1 37.2158393811 9.5265536930 0.2200014039
592 1 36.2132572938 11.0305113765 2.0275014064
593 1 39.7222786429 9.0251817195 -3.3949986032
594 1 38.7196968293 10.5291397216 -1.5874986011
595 1 37.7171190635 12.0330965895 0.2200014016
596 1 40.2235568893 11.5317258052 -3.3949986060
597 1 39.2209841042 -13.0324446124 -1.5874986028
598 1 34.2081063139 -12.0297039402 2.0275014127
599 1 36.7145459161 -12.5310743027 -1.5874985956
600 1 35.7119760875 -11.0271193691 0.2200014071
601 1 34.7094053940 -9.5231642999 2.0275014107
602 1 38.2184146621 -11.5284895472 -3.3949986002
603 1 37.2158460907 -10.0245350483 -1.5874985972
604 1 36.2132763166 -8.5205810526 0.2200014061
605 1 35.2107061518 -7.0166280211 2.0275014100
606 1 38.7197198307 -9.0219518676 -3.3949986016
607 1 37.7171528310 -7.5179991800 -1.5874985981
608 1 36.7145853637 -6.0140469923 0.2200014056
609 1 35.7120163584 -4.5100944975 2.0275014090
610 1 39.2210330339 -6.5154181549 -3.3949986021
611 1 38.2184649602 -5.0114662060 -1.5874985986
612 1 37.2158924806 -3.5075134936 0.2200014049
613 1 36.2133147335 -2.0035599788 2.0275014084
614 1 39.7223443830 -4.0088861235 -3.3949986027
615 1 38.7197684347 -2.5049334176 -1.5874985995
616 1 37.7171883540 -1.0009799730 0.2200014035
617 1 36.7146062980 0.5029741188 2.0275014072
618 1 40.2236437274 -1.5023538955 -3.3949986042
619 1 39.2210601901 0.0016001751 -1.5874986008
620 1 38.2184741155 1.5055554207 0.2200014027
621 1 37.2158856791 3.0095119117 2.0275014052
622 1 40.7249276869 1.0041809260 -3.3949986054
623 1 39.7223368209 2.5081374737 -1.5874986016
624 1 38.7197448730 4.0120949302 0.2200014006
625 1 37.7171539165 5.5160526567 2.0275014034
626 1 41.2261948993 3.5107203590 -3.3949986066
627 1 40.2236011822 5.0146787444 -1.5874986040
628 1 39.2210104494 6.5186371885 0.2200013985
629 1 38.2184234654 8.0225955087 2.0275014016
630 1 41.7274542455 6.0172638092 -3.3949986094
631 1 40.7248643035 7.5212229841 -1.5874986064
632 1 39.7222786430 9.0251817194 0.2200013965
633 1 38.7196968296 10.5291397215 2.0275013990
634 1 42.2287166410 8.5238098262 -3.3949986109
635 1 41.2261342649 10.0277684265 -1.5874986083
636 1 40.2235568894 11.5317258053 0.2200013946