LAMMPS data file via write_data, version 29 Aug 2024, timestep = 839, units = metal

3190 atoms
2 atom types

-100.1 100.1 xlo xhi
-13.03406325 13.03406325 ylo yhi
-3.615 3.615 zlo zhi
0 0 0 xy xz yz

Masses

1 63.55
2 63.55

Atoms # atomic

1 2 -0.21831754824917482 6.489689165588624 -1.5874984286050717 0 0 0
2 2 3.2622799108518024 -11.18803003020354 -1.5874984525516942 0 0 0
3 2 1.5387845811889775 12.000102609043589 -1.5874984383259332 0 0 0
4 2 3.262279910948621 -11.18803003032404 2.0275015478400147 0 0 0
5 2 -0.21831947911842065 -6.5443741548775956 -1.587498428476436 0 0 0
6 2 3.2622800427230914 -4.670997786723769 0.22000154753961362 0 0 0
7 2 1.5387843375950183 -1.0339602452063144 -1.5874984390270603 0 0 0
8 2 -0.21831784532474785 -0.02734223722451823 0.22000157129814274 0 0 0
9 2 0.7813629830289983 1.5205971265979557 -1.5874984347267844 0 0 0
10 2 3.2622823988924097 1.846033471386658 -1.5874984528207534 0 0 0
11 2 0.5094362812909736 4.045309115473595 -1.587498435744096 0 0 0
12 2 1.538785418596845 5.483071157055244 0.22000156159122877 0 0 0
13 2 -0.2183175489601723 6.489689165542467 2.0275015714118094 0 0 0
14 2 2.1114524258654797 7.002222872211073 -1.587498438990511 0 0 0
15 2 0.7813628513476516 8.037628525068568 0.22000156563828807 0 0 0
16 2 0.7813609117425813 -11.513466466889952 2.02750156564914 0 0 0
17 2 1.975628670894082 9.551350562047597 -1.587498444102282 0 0 0
18 2 0.5094355892566256 10.562340582555196 0.2200015641595759 0 0 0
19 2 1.5387845815572518 12.00010260899767 2.0275015615626386 0 0 0
20 2 1.9756266494109553 -9.999744195010546 -3.3949984437568173 0 0 1
21 2 3.262282266669132 8.363064477661682 0.22000154816611495 0 0 0
22 2 3.2622813196784506 11.049427199285015 0.22000154766402916 0 0 0
23 2 0.7813609117745699 -11.513466467162056 -1.5874984339701115 0 0 0
24 2 -0.2183191818632082 13.00672049609557 0.22000157166223946 0 -1 0
25 2 0.5094342497010729 -8.988754241566756 -1.5874984355208304 0 0 0
26 2 1.5387835006657014 -7.55099204255225 0.22000156140167565 0 0 0
27 2 -0.2183194798181063 -6.544374155443552 2.0275015714900415 0 0 0
28 2 2.1114501286774043 -6.031840178003757 -1.587498439074608 0 0 0
29 2 0.7813610425779984 -4.996434615216581 0.220001565616556 0 0 0
30 2 3.262280042878743 -4.670997786771869 -3.3949984530485193 0 0 1
31 2 1.9756272041457947 -3.4827122956600203 -1.5874984445069202 0 0 0
32 2 0.5094349402788652 -2.4717224600014234 0.22000156368419083 0 0 0
33 2 1.5387843377698545 -1.0339602451324517 2.027501561154915 0 0 0
34 2 -0.21831784476989924 -0.0273422372011769 -3.3949984283772516 0 0 1
35 2 3.262280991348547 -1.9846351699151725 0.2200015459878565 0 0 0
36 2 2.111452272297498 0.48519131664739135 0.22000156067042553 0 0 0
37 2 0.7813629831237279 1.5205971264988865 2.027501565645645 0 0 0
38 2 3.262282399250523 1.8460334716601405 2.0275015470709135 0 0 0
39 1 4.4131121466535745 0.4851917848416427 -3.394998466924576 0 0 0
40 2 1.975629226959967 3.0343192121144344 0.22000155571227636 0 0 0
41 2 0.5094362809950326 4.045309115136574 2.0275015642527356 0 0 0
42 2 1.5387854187254106 5.48307115702705 -3.394998438338356 0 0 1
43 1 4.548936045540913 3.034319150003176 -3.394998461501193 0 0 0
44 2 3.2622827176072917 4.53239600649904 -1.5874984534355487 0 0 0
45 2 2.1114524278340525 7.002222872367257 2.0275015611156446 0 0 0
46 2 0.781362851385822 8.037628525063086 -3.3949984343690076 0 0 1
47 1 4.985780439083584 5.4830707302930985 -3.3949984665579653 0 0 0
48 1 4.413112397341564 7.002222155074813 -1.5874984659924456 0 0 0
49 2 1.9756286711585176 9.551350562275433 2.0275015557956784 0 0 0
50 2 0.5094355892517797 10.562340582779212 -3.394998435544488 0 0 1
51 1 5.743201694487794 8.03762791587348 -3.3949984696291122 0 0 0
52 1 4.5489352070406 9.551350051957316 -1.5874984603767495 0 0 0
53 2 3.2622822665566673 8.36306447760955 -3.3949984523021897 0 0 1
54 2 3.2622813196182534 11.049427199326912 -3.3949984527106265 0 0 1
55 1 6.015127320392466 10.562340099375268 -3.3949984685279033 0 0 0
56 1 4.985777574820929 12.000102347626354 -1.5874984660879266 0 0 0
57 1 6.742879666575277 13.00672052741083 -3.3949984750372413 0 0 0
58 2 1.9756266494159433 -9.999744194976362 0.22000155568618568 0 0 0
59 2 -0.2183191823830697 13.006720496094557 -3.3949984283233925 0 -1 1
60 1 4.413109910081701 -12.548872363414425 -3.3949984654816108 0 1 0
61 2 2.111450284208871 -12.54887187239649 0.22000156120125328 0 0 0
62 2 0.5094342500661497 -8.988754242033291 2.0275015644125283 0 0 0
63 2 1.5387835006825554 -7.550992042418104 -3.39499843843383 0 0 1
64 1 4.5489327017470345 -9.999744151736923 -3.3949984608480555 0 0 0
65 2 3.2622795940121563 -8.50166722538557 -1.587498453072203 0 0 0
66 2 2.111450130670775 -6.03184017758851 2.0275015607681937 0 0 0
67 2 0.7813610427011355 -4.996434615007361 -3.394998434545691 0 0 1
68 1 4.9857752677715155 -7.550991637124386 -3.3949984662474963 0 0 0
69 1 4.413109661000419 -6.031839483535802 -1.5874984662535419 0 0 0
70 2 1.975627204043107 -3.4827122952506624 2.027501555378702 0 0 0
71 2 0.5094349403596112 -2.4717224599694116 -3.394998436046448 0 0 1
72 1 5.743199027226055 -4.996434032175925 -3.394998470293424 0 0 0
73 1 4.548933539201755 -3.482711804263335 -1.5874984613201155 0 0 0
74 2 3.262280991327458 -1.984635169644756 -3.3949984535244093 0 0 1
75 2 2.1114522713328228 0.48519131654316894 -3.394998439399612 0 0 1
76 1 6.015126771272378 -2.471722004508278 -3.3949984696942157 0 0 0
77 1 4.985778131945068 -1.0339600052253246 -1.5874984674274517 0 0 0
78 1 4.413112145376203 0.4851917850595875 0.22000153306672762 0 0 0
79 2 1.975629226748012 3.0343192122722744 -3.3949984444878365 0 0 1
80 1 6.742881975417006 -0.027342296556005508 -3.394998476445774 0 0 0
81 1 5.743201943088664 1.5205969669189088 -1.5874984711124278 0 0 0
82 1 4.548936045318314 3.034319149974573 0.2200015385508852 0 0 0
83 2 3.2622827173737363 4.532396006233659 2.027501546867302 0 0 0
84 1 7.116121771195466 2.531053721348723 -3.3949984753446802 0 0 0
85 1 6.015129453557591 4.045308626499123 -1.5874984695162064 0 0 0
86 1 4.985780439333652 5.483070730116188 0.2200015333100057 0 0 0
87 1 4.4131123954134495 7.0022221552814745 2.027501534113764 0 0 0
88 1 7.5924602413066395 5.007731833752244 -3.394998477814661 0 0 0
89 1 6.74288270911039 6.489688599628339 -1.5874984757115271 0 0 0
90 1 5.7432016943847515 8.037627915678465 0.22000153009060855 0 0 0
91 1 4.548935207248974 9.551350052269564 2.027501539600688 0 0 0
92 1 8.191855325341635 7.5206797668655465 -3.394998480346773 0 0 0
93 1 7.1161206177643095 9.048084985431545 -1.587498474128295 0 0 0
94 1 6.015127320456699 10.562340099419488 0.22000153139831702 0 0 0
95 1 4.985777574611774 12.00010234805117 2.0275015337357445 0 0 0
96 1 8.593162257879825 10.040956132394898 -3.3949984802541087 0 0 0
97 1 7.592457153613779 11.524763619947679 -1.5874984770008673 0 0 0
98 1 6.7428796660668695 13.006720527408648 0.22000152497784337 0 0 0
99 1 9.180145992552369 12.52224020583463 -3.3949984836202107 0 0 0
100 1 4.413109911191626 -12.548872363565604 0.22000153423565236 0 1 0
101 2 2.111450285695895 -12.548871872171796 -3.3949984389420296 0 0 1
102 1 5.743198778760103 -11.513466333659478 -1.5874984696674288 0 0 0
103 1 4.548932701576803 -9.99974415179855 0.22000153922029356 0 0 0
104 2 3.262279594453844 -8.501667226117315 2.027501546995999 0 0 0
105 1 7.116117378856046 -10.503009082311232 -3.394998474132921 0 0 0
106 1 6.015124639154422 -8.98875378225797 -1.587498468860842 0 0 0
107 1 4.985775267907854 -7.550991637375223 0.22000153333396522 0 0 0
108 1 4.4131096587380085 -6.031839483505054 2.0275015337083366 0 0 0
109 1 7.592454895897873 -8.026330457021984 -3.3949984769976846 0 0 0
110 1 6.742878932338783 -6.544373618783208 -1.5874984753825205 0 0 0
111 1 5.743199026990297 -4.996434032580337 0.22000152958971397 0 0 0
112 1 4.548933538617263 -3.4827118039813865 2.02750153848106 0 0 0
113 1 8.191851855236564 -5.5133823069397 -3.394998480797285 0 0 0
114 1 7.116118531056259 -3.9859770963049943 -1.5874984749780883 0 0 0
115 1 6.015126771154172 -2.4717220044271855 0.22000153025110586 0 0 0
116 1 4.985778132309321 -1.0339600049590327 2.0275015327395276 0 0 0
117 1 8.593161459348806 -2.993106155546098 -3.394998481110461 0 0 0
118 1 7.592457983215439 -1.5092989924038616 -1.5874984782038644 0 0 0
119 1 6.742881975948379 -0.02734229662827481 0.22000152362186026 0 0 0
120 1 5.743201943288597 1.5205969664528158 2.0275015291031573 0 0 0
121 1 9.180148594800983 -0.51182279510342 -3.3949984853673145 0 0 0
122 1 8.191855464448835 1.00364865228401 -1.5874984810146482 0 0 0
123 1 7.116121771171947 2.5310537213211735 0.22000152445157892 0 0 0
124 1 6.015129453402693 4.045308626645623 2.0275015305470236 0 0 0
125 1 9.638551869828703 2.0155816450050335 -3.394998486254954 0 0 0
126 1 8.59316465750129 3.523924522724842 -1.5874984813583037 0 0 0
127 1 7.592460241267105 5.0077318336147645 0.22000152252104546 0 0 0
128 1 6.742882709720931 6.489688599705639 2.0275015242219148 0 0 0
129 1 10.128696747790428 4.511522117913694 -3.3949984883885582 0 0 0
130 1 9.180149719742502 6.005208093319711 -1.587498484679052 0 0 0
131 1 8.191855325243452 7.520679766892551 0.22000151933782003 0 0 0
132 1 7.116120617963176 9.048084985725838 2.027501525683802 0 0 0
133 1 10.669672059844174 7.019252946490118 -3.394998490488826 0 0 0
134 1 9.638550530226695 8.532612966123596 -1.5874984855689345 0 0 0
135 1 8.593162257711342 10.040956132285602 0.22000151930605752 0 0 0
136 1 7.592457153201735 11.524763619891177 2.0275015233234472 0 0 0
137 1 11.129183516750643 9.531947799388233 -3.394998491187076 0 0 0
138 1 10.12869317878905 11.02855403534671 -1.5874984873696214 0 0 0
139 1 9.180145992857206 12.522240205452144 0.2200015156534704 0 0 0
140 1 11.662411968008954 12.028712294061757 -3.3949984930506267 0 0 0
141 1 5.743198779132996 -11.51346633346173 2.0275015300604564 0 0 0
142 1 8.191851716587706 -12.03041444153675 -1.5874984798624503 0 0 0
143 1 7.116117378876382 -10.503009082427974 0.22000152533569037 0 0 0
144 1 6.015124639715779 -8.988753782144778 2.027501531169395 0 0 0
145 1 9.638546567207072 -11.018480960060998 -3.3949984848502 0 0 0
146 1 8.593159061612724 -9.510137795847106 -1.5874984808738202 0 0 0
147 1 7.5924548958840035 -8.026330457137421 0.22000152266532522 0 0 0
148 1 6.74287893270953 -6.544373619367842 2.0275015244697037 0 0 0
149 1 10.128690560444639 -8.522539874349869 -3.3949984874696653 0 0 0
150 1 9.180144869349235 -7.028853933663851 -1.5874984846835247 0 0 0
151 1 8.191851855191118 -5.513382306752098 0.22000151949793526 0 0 0
152 1 7.116118531244652 -3.9859770968536576 2.0275015248881236 0 0 0
153 1 10.66966766838911 -6.014808820677308 -3.3949984904078203 0 0 0
154 1 9.638547904923541 -4.501449031820718 -1.5874984857780918 0 0 0
155 1 8.593161458824838 -2.9931061553745586 0.2200015184506728 0 0 0
156 1 7.592457983363786 -1.5092989933658156 2.0275015219631416 0 0 0
157 1 11.129182449427077 -3.5021142940291465 -3.394998492167637 0 0 0
158 1 10.128694127231597 -2.00550854218927 -1.5874984882680288 0 0 0
159 1 9.180148594567754 -0.5118227953150285 0.2200015148548408 0 0 0
160 1 8.19185546399548 1.0036486517642782 2.0275015190343786 0 0 0
161 1 11.6624150469641 -1.0053506597896291 -3.3949984946908165 0 0 0
162 1 10.669672105793978 0.5022219420075462 -1.5874984907258425 0 0 0
163 1 9.638551869722733 2.0155816449697905 0.22000151382189995 0 0 0
164 1 8.593164657458786 3.523924521949988 2.0275015186322474 0 0 0
165 1 12.150100637962353 1.509277026282133 -3.3949984959456456 0 0 0
166 1 11.129186316227475 3.0149161829892765 -1.587498492453424 0 0 0
167 1 10.128696747624218 4.511522117708127 0.2200015119318992 0 0 0
168 1 9.180149718912716 6.005208093157345 2.027501515188978 0 0 0
169 1 12.645723833590466 4.011925165293148 -3.3949984977655236 0 0 0
170 1 11.66241655715504 5.511680014948853 -1.5874984943813122 0 0 0
171 1 10.669672059799296 7.019252946260094 0.22000150975907018 0 0 0
172 1 9.638550530193953 8.532612966127937 2.0275015142723007 0 0 0
173 1 13.16309460869553 6.518429765542573 -3.394998499841247 0 0 0
174 1 12.15009907939033 8.026308248794232 -1.5874984954606268 0 0 0
175 1 11.129183516468345 9.531947799356354 0.22000150880096506 0 0 0
176 1 10.128693178025898 11.02855403572327 2.027501512959657 0 0 0
177 1 13.647633903352073 9.02773431589681 -3.394998501087137 0 0 0
178 1 12.645719551140076 10.528957145382671 -1.5874984972033321 0 0 0
179 1 11.66241196777922 12.028712293815383 0.22000150661764808 0 0 0
180 1 14.16075129013062 11.530455595339108 -3.394998502533634 0 0 0
181 1 13.163089117709973 -13.032664039824171 -1.5874984988502936 0 1 0
182 1 8.191851716937165 -12.030414441672912 2.0275015199619775 0 0 0
183 1 10.669667622319295 -12.53184106578561 -1.58749848941525 0 0 0
184 1 9.638546567191668 -11.018480960108713 0.22000151479040153 0 0 0
185 1 8.593159060947102 -9.51013779607856 2.02750151946902 0 0 0
186 1 12.150094221449692 -11.524785440609554 -3.3949984949420426 0 0 0
187 1 11.129179653948313 -10.019145926862326 -1.5874984909382615 0 0 0
188 1 10.128690560245133 -8.522539874439486 0.2200015123141472 0 0 0
189 1 9.18014486889939 -7.028853934011661 2.027501515195238 0 0 0
190 1 12.645716352360381 -9.02213648680734 -3.3949984975621934 0 0 0
191 1 11.662410460960317 -7.522381631986529 -1.5874984938369883 0 0 0
192 1 10.669667668365946 -6.014808820942957 0.22000150973189508 0 0 0
193 1 9.638547904553917 -4.501449031609736 2.0275015138891397 0 0 0
194 1 13.163089065579285 -6.515631587630262 -3.3949984999072966 0 0 0
195 1 12.150095777368179 -5.007753415380547 -1.5874984960121017 0 0 0
196 1 11.12918244979815 -3.5021142939804104 0.22000150796275714 0 0 0
197 1 10.128694127073729 -2.0055085415035343 2.027501511682203 0 0 0
198 1 13.647632485595437 -4.006327443226027 -3.394998501486086 0 0 0
199 1 12.645720628582438 -2.505105217491387 -1.5874984984868137 0 0 0
200 1 11.66241504686272 -1.0053506597562514 0.2200015055131048 0 0 0
201 1 10.669672106045738 0.5022219432222705 2.0275015090684163 0 0 0
202 1 14.160754988165266 -1.5036072195049393 -3.3949985036581225 0 0 0
203 1 13.163094555043159 0.0013989696505767313 -1.5874985001000292 0 0 0
204 1 12.150100638165213 1.5092770266607083 0.22000150393117052 0 0 0
205 1 11.129186317133119 3.014916183270307 2.0275015078184864 0 0 0
206 1 14.657804746748866 1.0059773610011575 -3.3949985057797774 0 0 0
207 1 13.647637246785408 2.5107027488418296 -1.58749850153267 0 0 0
208 1 12.645723833596932 4.011925165313533 0.22000150188658107 0 0 0
209 1 11.662416557060311 5.511680014945421 2.0275015056798735 0 0 0
210 1 15.156271275498739 3.5111359917736475 -3.3949985070048343 0 0 0
211 1 14.16075695408361 5.013423166711023 -1.5874985031367395 0 0 0
212 1 13.16309460855257 6.518429765717839 0.220001500623971 0 0 0
213 1 12.150099079153875 8.026308249464174 2.0275015043733156 0 0 0
214 1 15.66408652972251 6.017485986504996 -3.39499850939506 0 0 0
215 1 14.657802922697513 7.5230084275029 -1.587498505039206 0 0 0
216 1 13.647633903236468 9.027734316340217 0.22000149912762287 0 0 0
217 1 12.645719550900921 10.528957145971043 2.0275015028279806 0 0 0
218 1 16.1587992451134 8.525222707544126 -3.394998510948483 0 0 0
219 1 15.156266057299092 10.028168019799368 -1.5874985070107088 0 0 0
220 1 14.160751289827445 11.530455595245849 0.2200014970634285 0 0 0
221 1 13.163089117468573 -13.032664040180451 2.0275015012763085 0 1 0
222 1 16.664435738481828 11.030267794952527 -3.394998512907921 0 0 0
223 1 15.66407970931185 12.534518919862053 -1.587498508782628 0 0 0
224 1 10.669667622067891 -12.53184106601562 2.027501510444551 0 0 0
225 1 12.150094221567556 -11.524785440782082 0.22000150548458677 0 0 0
226 1 11.129179653358193 -10.019145926547237 2.02750150901037 0 0 0
227 1 14.657796907380998 -12.028084985938229 -3.394998504795816 0 0 0
228 1 13.647629149506571 -10.523359126094832 -1.587498500845829 0 0 0
229 1 12.645716352592828 -9.022136486920882 0.2200015027099095 0 0 0
230 1 11.662410460886306 -7.522381631941418 2.0275015061222166 0 0 0
231 1 15.15626205678555 -9.522925278981806 -3.3949985065856563 0 0 0
232 1 14.160749329895225 -8.020638042468917 -1.5874985030362583 0 0 0
233 1 13.163089065511926 -6.515631587557516 0.22000150047179037 0 0 0
234 1 12.150095776924047 -5.007753415259584 2.027501504186029 0 0 0
235 1 15.66407952734832 -7.016574868730043 -3.3949985092359767 0 0 0
236 1 14.657798726968323 -5.511052803367432 -1.587498505325691 0 0 0
237 1 13.647632485629188 -4.006327443048047 0.2200014984145216 0 0 0
238 1 12.645720628175866 -2.5051052177445694 2.0275015019037532 0 0 0
239 1 16.158797345273854 -4.508838629229945 -3.394998511378202 0 0 0
240 1 15.156267264454087 -3.0058940542651342 -1.5874985076784078 0 0 0
241 1 14.16075498776516 -1.5036072194264651 0.22000149614728165 0 0 0
242 1 13.163094555405792 0.0013989692565967715 2.027501500067259 0 0 0
243 1 16.664440191343573 -2.0037948362428057 -3.3949985140604393 0 0 0
244 1 15.664086345362634 -0.4995445491485029 -1.5874985099971433 0 0 0
245 1 14.657804746793516 1.0059773604825661 0.22000149438882433 0 0 0
246 1 13.647637246846827 2.510702748795527 2.027501498690996 0 0 0
247 1 17.164454722667486 0.5038802232436073 -3.394998515554746 0 0 0
248 1 16.158803281440413 2.008191211756756 -1.5874985115192326 0 0 0
249 1 15.156271275485693 3.51113599148969 0.2200014924364376 0 0 0
250 1 14.160756953751232 5.0134231665115205 2.0275014968158955 0 0 0
251 1 17.664395597260878 3.009943817559231 -3.3949985177256425 0 0 0
252 1 16.66444274518433 4.513235201429632 -1.58749851340648 0 0 0
253 1 15.664086529333787 6.017485986573847 0.22000149080315037 0 0 0
254 1 14.65780292275899 7.523008427511309 2.0275014949757035 0 0 0
255 1 18.168326635332832 5.516344165480868 -3.394998519591342 0 0 0
256 1 17.164452583467025 7.020911094526534 -1.5874985152487817 0 0 0
257 1 16.158799244936674 8.525222707360994 0.22000148905083683 0 0 0
258 1 15.15626605744312 10.028168020274068 2.027501493249202 0 0 0
259 1 18.66706355390842 8.023389207482689 -3.394998521570951 0 0 0
260 1 17.66438919753088 9.526975895142423 -1.587498516995337 0 0 0
261 1 16.66443573840904 11.030267794978245 0.2200014864925884 0 0 0
262 1 15.664079709524088 12.53451891967194 2.027501491093309 0 0 0
263 1 19.169933954922 10.529344784189464 -3.3949985239244334 0 0 0
264 1 18.168318142782 12.033377389951292 -1.5874985192089934 0 0 0
265 1 19.670861323945203 -13.031820180022699 -3.3949985257197786 0 1 0
266 1 14.657796907333875 -12.028084986130201 0.22000149567173605 0 0 0
267 1 13.647629149891358 -10.523359126446548 2.0275014992125246 0 0 0
268 1 17.16444508503973 -12.530181979321119 -3.3949985150692266 0 0 0
269 1 16.158793320245053 -11.025870384554013 -1.5874985106923614 0 0 0
270 1 15.15626205710241 -9.522925278890245 0.22000149305304015 0 0 0
271 1 14.16074933058907 -8.020638042886041 2.027501497161158 0 0 0
272 1 17.66438414143694 -10.02411699449603 -3.394998517281329 0 0 0
273 1 16.66443319496574 -8.520825496156798 -1.5874985130984955 0 0 0
274 1 15.664079527433032 -7.016574868766227 0.22000149069312228 0 0 0
275 1 14.657798726805268 -5.511052802893965 2.0275014946402705 0 0 0
276 1 18.168317774900913 -7.517716079933536 -3.3949985194211822 0 0 0
277 1 17.16444721823045 -6.01314960171386 -1.5874985154034535 0 0 0
278 1 16.15879734521947 -4.508838629465169 0.22000148846320824 0 0 0
279 1 15.15626726442028 -3.0058940545004322 2.0275014922081396 0 0 0
280 1 18.66706099762206 -5.010671602251021 -3.3949985212644638 0 0 0
281 1 17.664390524917692 -3.507085819991115 -1.58749851737643 0 0 0
282 1 16.66444019130772 -2.003794836349398 0.22000148608457723 0 0 0
283 1 15.664086345820621 -0.4995445496700146 2.02750149034111 0 0 0
284 1 19.169939315598754 -2.5047176162661096 -3.394998523918937 0 0 0
285 1 18.16832626282435 -1.0006860516086515 -1.5874985195744158 0 0 0
286 1 17.164454722421794 0.5038802231343826 0.2200014840523797 0 0 0
287 1 16.158803281219747 2.0081912115778113 2.0275014886412026 0 0 0
288 1 19.67087321493679 0.0022418402688142436 -3.3949985259192137 0 0 0
289 1 18.667068450054714 1.5063578010606413 -1.5874985220281101 0 0 0
290 1 17.664395597200667 3.0099438171269295 0.22000148277181425 0 0 0
291 1 16.66444274483544 4.513235201460885 2.0275014864157783 0 0 0
292 1 20.171542197175867 2.5086214875646817 -3.3949985290050595 0 0 0
293 1 19.169942639117693 4.012311991029103 -1.5874985238797106 0 0 0
294 1 18.168326635343504 5.516344165307105 0.22000148053155516 0 0 0
295 1 17.164452583627195 7.020911094201233 2.027501484457026 0 0 0
296 1 20.673895314879218 5.015081533461716 -3.3949985302054877 0 0 0
297 1 19.670870706545045 6.519272467219688 -1.5874985256808734 0 0 0
298 1 18.667063554096472 8.023389207504474 0.22000147865839007 0 0 0
299 1 17.66438919725512 9.52697589525331 2.0275014826645026 0 0 0
300 1 21.174200565100136 7.5218307559765964 -3.3949985320693274 0 0 0
301 1 20.171534322092484 9.025653625706576 -1.5874985277687517 0 0 0
302 1 19.169933955056536 10.529344784295974 0.22000147646429455 0 0 0
303 1 18.168318142706568 12.033377390314152 2.0275014807069964 0 0 0
304 1 21.67605629655752 10.028142939497387 -3.3949985342663678 0 0 0
305 1 20.673884722280604 11.532115122308229 -1.5874985300861557 0 0 0
306 1 19.67086132406203 -13.031820179800087 0.2200014740788294 0 1 0
307 1 22.177254444730252 12.534838170516538 -3.394998536945721 0 0 0
308 1 17.16444508505245 -12.530181979002332 0.2200014845203174 0 0 0
309 1 16.15879332062255 -11.025870384113071 2.027501489262192 0 0 0
310 1 18.667056117966013 -11.527703447532714 -1.5874985217785487 0 0 0
311 1 17.664384141744094 -10.024116994569223 0.2200014825574925 0 0 0
312 1 16.664433195069023 -8.520825496046012 2.0275014867857433 0 0 0
313 1 20.171527901954008 -10.525438754545254 -3.3949985280667963 0 0 0
314 1 19.169930647954104 -9.021748078970354 -1.5874985238022568 0 0 0
315 1 18.16831777516579 -7.517716079923639 0.2200014807987984 0 0 0
316 1 17.164447218435384 -6.01314960127479 2.0275014844792913 0 0 0
317 1 20.673884087744966 -8.01897795081839 -3.3949985305222836 0 0 0
318 1 19.670863824375914 -6.514787559558831 -1.5874985257373473 0 0 0
319 1 18.667060997748393 -5.010671601942638 0.22000147836537484 0 0 0
320 1 17.664390525509702 -3.5070858197610644 2.0275014824489457 0 0 0
321 1 21.17419712739938 -5.512229389821301 -3.39499853232266 0 0 0
322 1 20.171535751296645 -4.008407637500282 -1.587498528115826 0 0 0
323 1 19.169939315960022 -2.5047176161970217 0.2200014758512359 0 0 0
324 1 18.168326263270018 -1.000686050916224 2.0275014800435622 0 0 0
325 1 21.67606274685963 -3.00591916607668 -3.394998534301597 0 0 0
326 1 20.673894672767844 -1.501948283945934 -1.5874985299736983 0 0 0
327 1 19.67087321496595 0.002241840223161873 0.22000147344844387 0 0 0
328 1 18.667068450067518 1.5063578011173604 2.027501478087785 0 0 0
329 1 22.177269147039524 -0.4992265349825793 -3.394998535530165 0 0 0
330 1 21.174206519233607 1.0047994637231508 -1.587498532359171 0 0 0
331 1 20.17154219737715 2.508621487083932 0.22000147185510494 0 0 0
332 1 19.169942639593984 4.0123119916713375 2.02750147566733 0 0 0
333 1 22.678281954956816 2.0072601328341335 -3.3949985383777896 0 0 0
334 1 21.67606707593535 3.5111099009381395 -1.5874985346028991 0 0 0
335 1 20.673895315105128 5.015081533294245 0.22000146968365977 0 0 0
336 1 19.670870706558077 6.519272467813229 2.0275014743143505 0 0 0
337 1 23.17999640602912 4.513758416437755 -3.3949985395827267 0 0 0
338 1 22.177266209610735 6.017803783609219 -1.5874985359831133 0 0 0
339 1 21.17420056506542 7.521830756137712 0.22000146780616253 0 0 0
340 1 20.17153432264348 9.025653626068651 2.0275014722054236 0 0 0
341 1 23.680906632486625 7.0203835922180975 -3.3949985426975227 0 0 0
342 1 22.678272246542605 8.524292340869673 -1.5874985384879408 0 0 0
343 1 21.676056296750758 10.028142939459231 0.22000146521252825 0 0 0
344 1 20.673884722299675 11.53211512282674 2.027501469706174 0 0 0
345 1 24.182393187795654 9.52683510692635 -3.3949985441657415 0 0 0
346 1 23.17998317805406 11.030792459116475 -1.587498540584533 0 0 0
347 1 22.177254445082028 12.53483817058716 0.22000146383394054 0 0 0
348 1 24.683663520651407 12.033431923379341 -3.3949985464905006 0 0 0
349 1 18.667056118160247 -11.527703447404665 2.0275014783328773 0 0 0
350 1 21.1741911990905 -12.029261349529543 -1.5874985327330662 0 0 0
351 1 20.17152790201051 -10.525438754694713 0.22000147119821614 0 0 0
352 1 19.16993064852433 -9.021748079535492 2.027501475911046 0 0 0
353 1 22.678264075473123 -11.026799398467926 -3.394998538897633 0 0 0
354 1 21.67605199446581 -9.522949387212654 -1.5874985347361923 0 0 0
355 1 20.673884087836186 -8.018977951028413 0.22000146982517824 0 0 0
356 1 19.67086382428532 -6.514787559683429 2.027501474150702 0 0 0
357 1 23.179982167903475 -8.520300111877216 -3.394998540398174 0 0 0
358 1 22.177257369959264 -7.016255401617533 -1.5874985362828122 0 0 0
359 1 21.174197127457077 -5.512229390089159 0.22000146786527433 0 0 0
360 1 20.17153575071606 -4.008407637712304 2.027501472015714 0 0 0
361 1 23.68090202341341 -6.013675711799226 -3.394998542429031 0 0 0
362 1 22.67827374193726 -4.50976834807059 -1.587498538313895 0 0 0
363 1 21.67606274664803 -3.005919166519078 0.22000146605442295 0 0 0
364 1 20.673894672659245 -1.501948283496331 2.027501469762407 0 0 0
365 1 24.182400943499715 -3.507226614293634 -3.3949985440278745 0 0 0
366 1 23.179995382004634 -2.003270893472333 -1.587498539687596 0 0 0
367 1 22.1772691471393 -0.4992265350777174 0.22000146349460603 0 0 0
368 1 21.174206519780938 1.0047994629244705 2.027501467783868 0 0 0
369 1 24.683681720641275 -1.0006330524696576 -3.39499854608403 0 0 0
370 1 23.680913883795768 0.5033524508065792 -1.5874985420172465 0 0 0
371 1 22.678281955015336 2.0072601326631343 0.22000146212629437 0 0 0
372 1 21.676067076801573 3.5111099012692737 2.027501465384274 0 0 0
373 1 25.184851477205257 1.5058884785493394 -3.3949985480424734 0 0 0
374 1 24.182406582650998 3.0098017697785604 -1.587498543868428 0 0 0
375 1 23.179996406307737 4.513758416233026 0.22000146020719205 0 0 0
376 1 22.177266209214523 6.0178037835737594 2.0275014637290023 0 0 0
377 1 25.686308672323804 4.012407240280654 -3.3949985500487863 0 0 0
378 1 24.68367828975032 5.516396868612345 -1.5874985460281783 0 0 0
379 1 23.680906632755722 7.020383592268102 0.22000145795872303 0 0 0
380 1 22.678272247011563 8.524292341345907 2.0275014614750133 0 0 0
381 1 26.187449992366894 6.518981138308744 -3.3949985524456183 0 0 0
382 1 25.184839496959626 8.022920762541085 -1.5874985486470055 0 0 0
383 1 24.18239318788781 9.526835107150754 0.22000145528573148 0 0 0
384 1 23.179983178446307 11.03079245894414 2.027501459551814 0 0 0
385 1 26.68880292139721 9.02548697988514 -3.394998554965937 0 0 0
386 1 25.686292140507575 10.529441843514222 -1.587498550792479 0 0 0
387 1 24.683663520566995 12.033431923488026 0.22000145331657733 0 0 0
388 1 27.190087961953296 11.532047883576082 -3.3949985574476655 0 0 0
389 1 26.18743506380089 -13.032109411801772 -1.5874985530102856 0 1 0
390 1 21.174191198973233 -12.029261349188104 2.0275014673530842 0 0 0
391 1 23.680894813354158 -12.530707823051864 -1.5874985426300712 0 0 0
392 1 22.678264075587748 -11.026799398571029 0.22000146152636055 0 0 0
393 1 21.67605199500676 -9.522949387375425 2.027501465179683 0 0 0
394 1 25.184829087821484 -11.528170170314322 -3.394998548947842 0 0 0
395 1 24.18238759286264 -10.024256542450425 -1.5874985446408347 0 0 0
396 1 23.179982167855627 -8.520300112034839 0.22000145963351103 0 0 0
397 1 22.177257370075466 -7.016255402143011 2.0275014636840516 0 0 0
398 1 25.68629060612561 -9.021650088238674 -3.394998550641934 0 0 0
399 1 24.683666932447437 -7.517661254381096 -1.5874985466233131 0 0 0
400 1 23.680902023327548 -6.013675711382229 0.22000145775993493 0 0 0
401 1 22.678273741412227 -4.509768348299268 2.0275014617697167 0 0 0
402 1 26.18744383170271 -6.515077096684089 -3.394998553439944 0 0 0
403 1 25.184841000089236 -5.011139190775227 -1.5874985487185056 0 0 0
404 1 24.182400943310654 -3.50722661424577 0.22000145572725663 0 0 0
405 1 23.179995381784423 -2.003270894061677 2.027501460138127 0 0 0
406 1 26.688812236368094 -4.008574240169292 -3.394998554690114 0 0 0
407 1 25.686307114957955 -2.5046214241947915 -1.5874985502788628 0 0 0
408 1 24.683681720815358 -1.0006330525309384 0.22000145420303183 0 0 0
409 1 23.680913883577077 0.5033524497495137 2.027501457916887 0 0 0
410 1 27.190110507260513 -1.5020174120183594 -3.394998556415249 0 0 0
411 1 26.187458825286626 0.0019501988900554323 -1.5874985518194944 0 0 0
412 1 25.1848514771696 1.5058884787531532 0.22000145220990933 0 0 0
413 1 24.182406582751483 3.009801769415569 2.027501456252874 0 0 0
414 1 27.691350291227195 1.0045147624835877 -3.394998558028887 0 0 0
415 1 26.688819577520576 2.508453279697294 -1.5874985538063326 0 0 0
416 1 25.686308672511956 4.0124072401480735 0.22000144984708972 0 0 0
417 1 24.683678289633676 5.51639686833906 2.0275014540443173 0 0 0
418 1 28.19270430442208 3.5110435024642097 -3.394998560662432 0 0 0
419 1 27.1901065159322 5.01501199655325 -1.5874985563068789 0 0 0
420 1 26.187449992075926 6.518981138201854 0.22000144753718834 0 0 0
421 1 25.18483949727387 8.022920762809383 2.027501451473389 0 0 0
422 1 28.69393263179822 6.017596460004116 -3.3949985629826975 0 0 0
423 1 27.691335499383598 7.521547125262439 -1.5874985590407196 0 0 0
424 1 26.688802921425975 9.025486979761498 0.22000144497161614 0 0 0
425 1 25.68629214043378 10.529441843549607 2.027501449233751 0 0 0
426 1 29.195236805277148 8.524123540875538 -3.394998566262097 0 0 0
427 1 28.19268363158929 10.028078796824305 -1.587498561881901 0 0 0
428 1 27.19008796174907 11.532047883237803 0.22000144246949427 0 0 0
429 1 26.18743506363056 -13.03210941196569 2.027501446888677 0 1 0
430 1 29.696521575986765 11.030671703564257 -3.394998568799635 0 0 0
431 1 28.693913768085253 12.53463349142889 -1.5874985640336592 0 0 0
432 1 23.680894814178345 -12.530707822432676 2.0275014575837917 0 0 0
433 1 25.18482908812679 -11.528170170300664 0.22000145100760227 0 0 0