LAMMPS data file via write_data, version 29 Aug 2024, timestep = 1094, units = metal

3190 atoms
2 atom types

-100.1 100.1 xlo xhi
-13.03406325 13.03406325 ylo yhi
-3.615 3.615 zlo zhi
0 0 0 xy xz yz

Masses

1 63.55
2 63.55

Atoms # atomic

1 1 0.3981214900458383 7.000432877356699 -3.3858197387899427 0 0 0
2 1 0.5339446032560033 9.549560660446035 -3.3858197304189717 0 0 0
3 1 0.970787531595974 11.998312774156 -3.3858197385925495 0 0 0
4 1 0.398119873831007 -12.550662009030358 -1.5783197385943384 0 1 0
5 1 0.398119213583783 -6.033629476804426 -3.3858197400032313 0 0 0
6 1 0.5339428268437558 -3.4845016711227608 -3.3858197314736933 0 0 0
7 1 0.9707868773617889 -1.035749702085539 -3.385819739968759 0 0 0
8 1 0.3981208283954061 0.4834021601640295 -1.5783197399640105 0 0 0
9 1 1.7282104868602772 1.5188074411283292 -3.385819745499518 0 0 0
10 1 0.5339446677550228 3.0325296510981854 -1.5783197305203887 0 0 0
11 1 2.0001379445667595 4.043519229515601 -3.3858197433304604 0 0 0
12 1 0.9707889922850512 5.48128133114888 -1.5783197391981147 0 0 0
13 1 0.3981214902342316 7.000432877411312 0.22918026090863045 0 0 0
14 1 2.727891646836568 6.487899156496612 -3.3858197561345067 0 0 0
15 1 1.7282109023951335 8.035838489603472 -1.5783197447704487 0 0 0
16 1 0.5339446032489974 9.549560660460267 0.22918027020337206 0 0 0
17 1 3.1011300477999697 9.046295471758134 -3.3858197534442227 0 0 0
18 1 2.0001370481416245 10.560550553286953 -1.5783197435093401 0 0 0
19 1 0.9707875314801981 11.998312774157332 0.22918026135641897 0 0 0
20 1 0.3981198741389278 -12.550662009190896 2.036680261328731 0 1 0
21 1 3.577467160733576 11.522973961796827 -3.3858197573600313 0 0 0
22 1 2.7278897538591735 13.004930837450177 -1.578319754778176 0 0 0
23 1 1.7282089020196025 -11.515256102287465 -3.385819744274651 0 0 0
24 1 0.5339427626622495 -10.001533909827156 -1.578319730141577 0 0 0
25 1 2.0001348336541867 -8.990543687256762 -3.3858197431951056 0 0 0
26 1 0.9707854232345738 -7.552781507677619 -1.5783197397002755 0 0 0
27 1 0.3981192115114425 -6.0336294764534095 0.22918025959119898 0 0 0
28 1 2.727888658970656 -6.5461634893786425 -3.3858197555868896 0 0 0
29 1 1.728208488050285 -4.998223900093988 -1.578319746252559 0 0 0
30 1 0.5339428265125719 -3.4845016709548293 0.2291802680480393 0 0 0
31 1 3.1011277805150144 -3.9877669099493893 -3.385819755195635 0 0 0
32 1 2.0001357274699814 -2.4735117631378785 -1.578319744968158 0 0 0
33 1 0.9707868775990249 -1.0357497025097295 0.22918025944417003 0 0 0
34 1 0.3981208249667674 0.4834021603566274 2.03668026005017 0 0 0
35 1 3.577466655804784 -1.5110886693977772 -3.3858197603038773 0 0 0
36 1 2.7278905465247476 -0.029131921425964435 -1.57831975687019 0 0 0
37 1 1.728210486146466 1.518807441581064 0.2291802539031201 0 0 0
38 1 0.5339446684014888 3.032529651986968 2.036680269540856 0 0 0
39 1 4.176863831024207 1.0018591225056692 -3.385819765451621 0 0 0
40 1 3.1011301745471656 2.5292642489825017 -1.5783197549474777 0 0 0
41 1 2.000137944515373 4.043519229061856 0.2291802555734018 0 0 0
42 1 0.9707889919112489 5.481281331422432 2.0366802609869854 0 0 0
43 1 4.578172989899073 3.522135093450297 -3.3858197655924838 0 0 0
44 1 3.577468780947271 5.005942390504918 -1.5783197587444215 0 0 0
45 1 2.727891646582208 6.48789915646257 0.22918024359897096 0 0 0
46 1 1.728210901700777 8.035838488778113 2.0366802549390175 0 0 0
47 1 5.165158510141879 6.0034186372057 -3.385819772286922 0 0 0
48 1 4.176864459999749 7.518890271915447 -1.578319764074755 0 0 0
49 1 3.1011300477288586 9.0462954713029 0.22918024558011652 0 0 0
50 1 2.000137046863955 10.560550553247511 2.0366802569122964 0 0 0
51 1 5.623559961730152 8.530823417025212 -3.3858197732417943 0 0 0
52 1 4.578172020895565 10.039166517452943 -1.5783197639849416 0 0 0
53 1 3.5774671603044084 11.522973961464738 0.2291802420867151 0 0 0
54 1 2.727889754269384 13.004930837012347 2.036680245588602 0 0 0
55 1 6.1137032870551025 11.026764322895199 -3.385819775590291 0 0 0
56 1 5.165156237435298 12.520450437851432 -1.5783197697950884 0 0 0
57 1 6.654678134192409 -12.533630960761391 -3.3858197800113268 0 1 0
58 1 1.7282089011791726 -11.515256101880667 0.22918025588795723 0 0 0
59 1 0.5339427634673655 -10.001533910054755 2.036680269608211 0 0 0
60 1 4.176862016060227 -12.03220426195458 -3.385819763141312 0 0 0
61 1 3.101127652186193 -10.504798937870108 -1.5783197529922053 0 0 0
62 1 2.000134833702333 -8.990543687333245 0.22918025653370466 0 0 0
63 1 0.9707854232047453 -7.55278150729492 2.0366802604696796 0 0 0
64 1 4.578169405665577 -9.511927729315772 -3.385819763147847 0 0 0
65 1 3.5774650404280095 -8.028120347690301 -1.5783197576297283 0 0 0
66 1 2.7278886595049414 -6.546163489800686 0.22918024421129676 0 0 0
67 1 1.7282084884091375 -4.998223900801101 2.0366802539395525 0 0 0
68 1 5.1651547464778105 -7.030643850299332 -3.3858197702103214 0 0 0
69 1 4.176861391991864 -5.515172163351585 -1.578319763786232 0 0 0
70 1 3.101127780729172 -3.9877669101949795 0.229180245351319 0 0 0
71 1 2.0001357277887593 -2.473511762551235 2.0366802554504093 0 0 0
72 1 5.623557149971106 -4.503238872716691 -3.3858197735553874 0 0 0
73 1 4.578170375058832 -2.994895905709436 -1.578319765053041 0 0 0
74 1 3.5774666555167727 -1.5110886694408112 0.2291802410398765 0 0 0
75 1 2.727890547953521 -0.029131920926845467 2.036680243179374 0 0 0
76 1 6.113702691226408 -2.007298230751543 -3.3858197779141586 0 0 0
77 1 5.165157013222554 -0.5136124013053127 -1.5783197723644413 0 0 0
78 1 4.176863830457535 1.0018591229683569 0.22918023477896662 0 0 0
79 1 3.1011301738649166 2.529264250349863 2.036680245055366 0 0 0
80 1 6.6546802558866744 0.500432423114642 -3.385819782986016 0 0 0
81 1 5.623560064581355 2.0137921839500876 -1.5783197748957747 0 0 0
82 1 4.578172990167346 3.522135094080026 0.22918023511518268 0 0 0
83 1 3.577468780200036 5.005942390368654 2.0366802414739995 0 0 0
84 1 7.11419444065443 3.0131267761097735 -3.385819785201443 0 0 0
85 1 6.113705154395774 4.50973269632699 -1.5783197776934597 0 0 0
86 1 5.165158510240346 6.003418637219285 0.22918023029184229 0 0 0
87 1 4.176864459460418 7.51889027417935 2.0366802356913047 0 0 0
88 1 7.647425188266254 5.509890595005109 -3.3858197887973422 0 0 0
89 1 6.654681114500832 7.017463464764186 -1.578319780980204 0 0 0
90 1 5.62355996195744 8.53082341727792 0.2291802266858803 0 0 0
91 1 4.5781720206150425 10.039166517590852 2.036680236433787 0 0 0
92 1 8.13510850934452 8.024518714424618 -3.3858197921165476 0 0 0
93 1 7.114193341227889 9.530158168767878 -1.5783197832848956 0 0 0
94 1 6.113703286884075 11.026764322294055 0.22918022397191137 0 0 0
95 1 5.165156237911944 12.520450436898672 2.036680229736335 0 0 0
96 1 8.630729809698423 10.527167408718539 -3.385819795319939 0 0 0
97 1 7.647422418173605 12.026922467564853 -1.5783197879635165 0 0 0
98 1 6.65467813464879 -12.5336309603002 0.22918021953601397 0 1 0
99 1 9.14809990331183 13.033672499726903 -3.385819799294809 0 0 0
100 1 4.176862015249682 -12.032204261989204 0.22918023787377645 0 0 0
101 1 3.101127651787067 -10.504798936934698 2.03668024666077 0 0 0
102 1 5.623557041579886 -11.020270887279128 -1.578319771807146 0 0 0
103 1 4.5781694058104705 -9.511927729779991 0.229180236504272 0 0 0
104 1 3.5774650400533545 -8.02812034819267 2.0366802423190182 0 0 0
105 1 7.11419019847942 -10.020935943928999 -3.3858197823441922 0 0 0
106 1 6.113700827104424 -8.524329852012027 -1.5783197753422802 0 0 0
107 1 5.16515474653653 -7.030643850707877 0.22918023023741582 0 0 0
108 1 4.176861391517207 -5.515172163716184 2.0366802361184675 0 0 0
109 1 7.647420497675142 -7.524171647026873 -3.3858197882448566 0 0 0
110 1 6.6546772829802165 -6.016598752084425 -1.57831978079558 0 0 0
111 1 5.623557149995648 -4.50323887292582 0.22918022673298866 0 0 0
112 1 4.578170375161918 -2.994895904983176 2.0366802347788537 0 0 0
113 1 8.135105023926045 -5.009543326809782 -3.3858197919553232 0 0 0
114 1 7.114191302437746 -3.503904088589273 -1.578319784207426 0 0 0
115 1 6.113702691004079 -2.00729823109428 0.22918022180710043 0 0 0
116 1 5.165157011892433 -0.5136124011586798 2.036680227302552 0 0 0
117 1 8.630729041644372 -2.506894937966365 -3.3858197971296433 0 0 0
118 1 7.64742326095741 -1.0071402714137765 -1.5783197908277238 0 0 0
119 1 6.654680255531829 0.5004324228049253 0.22918021753909715 0 0 0
120 1 5.6235600641337555 2.0137921842777757 2.036680225246231 0 0 0
121 1 9.148102431076083 -0.0003905392372196559 -3.3858198021244297 0 0 0
122 1 8.135108576324797 1.5074875876034994 -1.5783197938625417 0 0 0
123 1 7.114194440242741 3.013126776456369 0.2291802147276879 0 0 0
124 1 6.11370515510626 4.509732696787987 2.0366802225643226 0 0 0
125 1 9.632645092689557 2.50891338444697 -3.385819805810611 0 0 0
126 1 8.630732033715503 4.010135789114257 -1.5783197972317444 0 0 0
127 1 7.647425189066013 5.509890594454896 0.2291802102496926 0 0 0
128 1 6.654681115485232 7.017463465430685 2.036680219040459 0 0 0
129 1 10.145765390590725 5.011633803469794 -3.385819808188216 0 0 0
130 1 9.148103565951303 6.516640324298455 -1.578319799964215 0 0 0
131 1 8.13510850915732 8.024518714504248 0.22918020866085917 0 0 0
132 1 7.114193341584183 9.53015816943232 2.0366802168318365 0 0 0
133 1 10.642812342265245 7.521218923528979 -3.385819811501193 0 0 0
134 1 9.632643810671595 9.02594469051064 -1.5783198035858732 0 0 0
135 1 8.630729810535442 10.527167409172234 0.2291802056371068 0 0 0
136 1 7.64742241724781 12.026922467948099 2.036680211855369 0 0 0
137 1 11.141276508915027 10.026378265457806 -3.3858198144089884 0 0 0
138 1 10.145761995250894 11.5286657228123 -1.5783198070609379 0 0 0
139 1 9.14809990371522 13.03367249984201 0.22918020124136726 0 0 0
140 1 11.649090838572121 12.532728887833608 -3.385819818102154 0 0 0
141 1 5.623557042361867 -11.020270888062285 2.0366802282676106 0 0 0
142 1 8.13510494734571 -11.526575451672095 -1.5783197912655125 0 0 0
143 1 7.114190198193967 -10.020935944648862 0.22918021775720362 0 0 0
144 1 6.113700827734419 -8.524329852105351 2.0366802246420543 0 0 0
145 1 9.632639965043225 -10.52514924071036 -3.3858198030370303 0 0 0
146 1 8.63072681802268 -9.023926569683319 -1.5783197945415017 0 0 0
147 1 7.647420497887012 -7.5241716469384015 0.22918021219952675 0 0 0
148 1 6.654677284073244 -6.016598751650635 2.036680219388875 0 0 0
149 1 10.145759558809203 -8.02242816945916 -3.3858198068594896 0 0 0
150 1 9.14809877770388 -6.5174216143204236 -1.578319799711223 0 0 0
151 1 8.13510502325326 -5.009543327310366 0.2291802076633684 0 0 0
152 1 7.114191301127903 -3.50390408769967 2.0366802156124826 0 0 0
153 1 10.64280798151556 -5.512842800731321 -3.38581981096832 0 0 0
154 1 9.632641254746147 -4.00811729610559 -1.5783198043718845 0 0 0
155 1 8.630729040942413 -2.5068949381181476 0.22918020262654745 0 0 0
156 1 7.647423261197531 -1.0071402702687635 2.0366802092832743 0 0 0
157 1 11.141275484228274 -3.007683810901492 -3.385819816529591 0 0 0
158 1 10.14576294892025 -1.5053968362842145 -1.5783198093809852 0 0 0
159 1 9.14810243137481 -0.00039053992987092556 0.22918019795087013 0 0 0
160 1 8.135108576272913 1.5074875889268657 2.0366802057953333 0 0 0
161 1 11.649093878483285 -0.5013340382168714 -3.3858198217951085 0 0 0
162 1 10.64281235737738 1.0041879583982993 -1.578319813190035 0 0 0
163 1 9.63264509268133 2.5089133842511924 0.22918019452043825 0 0 0
164 1 8.630732034300578 4.01013579099382 2.036680203069442 0 0 0
165 1 12.14381076724338 2.0064019088564766 -3.3858198248770943 0 0 0
166 1 11.141279195940001 3.509346679978661 -1.5783198170105897 0 0 0
167 1 10.14576539138777 5.0116338039440596 0.22918019081637375 0 0 0
168 1 9.148103566493987 6.516640323561566 2.0366802001024134 0 0 0
169 1 12.649450933475933 4.511445914842026 -3.3858198283112104 0 0 0
170 1 11.649095360910351 6.015696601373309 -1.578319820473378 0 0 0
171 1 10.642812342300076 7.521218924347794 0.22918018839190182 0 0 0
172 1 9.6326438112458 9.02594469007664 2.0366801967421098 0 0 0
173 1 13.149461984909848 7.019121639581664 -3.385819831832949 0 0 0
174 1 12.143809255166957 8.523433096004231 -1.5783198229330937 0 0 0
175 1 11.141276509527927 10.026378265650665 0.22918018488205008 0 0 0
176 1 10.145761994847703 11.528665723221154 2.03668019335074 0 0 0
177 1 13.64939988962908 9.525186129856673 -3.3858198341598 0 0 0
178 1 12.649446758981213 11.028477876006443 -1.5783198259462268 0 0 0
179 1 11.649090838989423 12.532728888174185 0.22918018182962235 0 0 0
180 1 14.153329701235819 12.031587278842595 -3.3858198373763733 0 0 0
181 1 13.149456547974921 -12.531972178096629 -1.5783198294037721 0 1 0
182 1 8.135104946991646 -11.526575452260174 2.0366802089284213 0 0 0
183 1 10.642807957277427 -12.029875084565615 -1.5783198100444544 0 0 0
184 1 9.632639965379227 -10.52514924069035 0.2291801977192929 0 0 0
185 1 8.63072681810199 -9.023926569587395 2.0366802052769137 0 0 0
186 1 12.143804492131665 -11.027660610976744 -3.385819821967693 0 0 0
187 1 11.141272796377905 -9.52471547772739 -1.578319814780765 0 0 0
188 1 10.145759558639725 -8.022428169226272 0.22918019205517196 0 0 0
189 1 9.148098778486087 -6.517421614404929 2.036680200769968 0 0 0
190 1 12.649443669400327 -8.522615749114996 -3.385819825966994 0 0 0
191 1 11.649089364983183 -7.018365004362554 -1.5783198192292274 0 0 0
192 1 10.642807981320729 -5.5128428010527415 0.22918018845277713 0 0 0
193 1 9.632641253279118 -4.008117297415234 2.0366801949091538 0 0 0
194 1 13.149456490284322 -6.014939696530789 -3.385819830802869 0 0 0
195 1 12.143806010251808 -4.510628550372031 -1.578319823168154 0 0 0
196 1 11.141275484162065 -3.0076838110558963 0.22918018365762244 0 0 0
197 1 10.145762948458241 -1.5053968373672166 2.036680190455277 0 0 0
198 1 13.649398505052488 -3.508875613026392 -3.3858198341821706 0 0 0
199 1 12.64944783631482 -2.0055844574209107 -1.5783198274006873 0 0 0
200 1 11.649093878162375 -0.5013340383630425 0.22918018025373876 0 0 0
201 1 10.642812356897196 1.0041879588262823 2.03668018688236 0 0 0
202 1 14.153333367412827 -1.0024755059104162 -3.3858198386342684 0 0 0
203 1 13.149461918352173 0.5020908746529429 -1.5783198317680693 0 0 0
204 1 12.143810767640588 2.006401908661992 0.2291801757653807 0 0 0
205 1 11.141279195764639 3.5093466813893297 2.03668018269721 0 0 0
206 1 14.652075477809191 1.5045685873123134 -3.3858198424642487 0 0 0
207 1 13.64940315704176 3.008154593332863 -1.578319835509774 0 0 0
208 1 12.649450933653952 4.51144591558216 0.229180171072468 0 0 0
209 1 11.649095361173181 6.015696601297941 2.0366801798101846 0 0 0
210 1 15.15495051029626 4.010522812372608 -3.3858198463492113 0 0 0
211 1 14.153335302275977 5.51455486193276 -1.5783198396311602 0 0 0
212 1 13.149461984176526 7.019121639822879 0.22918016878489425 0 0 0
213 1 12.143809255952945 8.52343309629312 2.036680177397417 0 0 0
214 1 15.655880076922415 6.517483086231062 -3.385819849668804 0 0 0
215 1 14.652073688325444 8.021599626321256 -1.5783198427614453 0 0 0
216 1 13.649399890352228 9.525186129676085 0.22918016546350237 0 0 0
217 1 12.64944675932766 11.028477876312762 2.036680173824308 0 0 0
218 1 16.15654531206482 9.023863859116824 -3.385819853355236 0 0 0
219 1 15.154945367715882 10.527554819537054 -1.5783198458052852 0 0 0
220 1 14.153329701139072 12.0315872792418 0.22918016305271152 0 0 0
221 1 13.149456548678842 -12.531972177357831 2.0366801707258815 0 1 0
222 1 16.65889681909499 11.530324921684697 -3.3858198575803593 0 0 0
223 1 15.655873309224049 -13.033610496730706 -1.5783198486604049 0 1 0
224 1 10.642807957582022 -12.029875084078693 2.036680189738321 0 0 0
225 1 12.143804492802886 -11.027660610860517 0.2291801781305827 0 0 0
226 1 11.141272796477352 -9.524715476842738 2.0366801854421017 0 0 0
227 1 14.6520677479744 -11.529493806237971 -3.385819840963611 0 0 0
228 1 13.649395240372357 -10.025907327836023 -1.5783198338980435 0 0 0
229 1 12.649443668754657 -8.522615749231768 0.2291801731689121 0 0 0
230 1 11.649089364202823 -7.018365005860909 2.0366801809140624 0 0 0
231 1 15.154941439212578 -9.023538480765172 -3.38581984439719 0 0 0
232 1 14.153327775991713 -7.519506341932776 -1.5783198376936867 0 0 0
233 1 13.149456490567076 -6.014939697020824 0.22918017068155977 0 0 0
234 1 12.143806009694828 -4.510628549847327 2.0366801768980722 0 0 0
235 1 15.655873127054065 -6.51657776918927 -3.385819849059638 0 0 0
236 1 14.652069538907014 -5.012461597295465 -1.578319841726172 0 0 0
237 1 13.649398505133547 -3.508875613672947 0.22918016561978313 0 0 0
238 1 12.649447837793048 -2.0055844580901034 2.0366801725958044 0 0 0
239 1 16.15654343637867 -4.010197469726117 -3.3858198533853536 0 0 0
240 1 15.154946571567578 -2.5065072344947854 -1.578319845411162 0 0 0
241 1 14.153333367095897 -1.0024755059521304 0.22918016171986677 0 0 0
242 1 13.149461919281293 0.50209087452021 2.0366801684202684 0 0 0
243 1 16.658901241272147 -1.503737687581447 -3.385819857490247 0 0 0
244 1 15.655879888195699 0.00045256971914930944 -1.578319849526375 0 0 0
245 1 14.652075478136481 1.50456858741968 0.22918015757642593 0 0 0
246 1 13.649403156076232 3.008154594121587 2.0366801645091686 0 0 0
247 1 17.159212963938288 1.0030103714537315 -3.385819860561719 0 0 0
248 1 16.15654929461911 2.506832386367398 -1.5783198534401053 0 0 0
249 1 15.154950510500285 4.010522812723687 0.22918015366907504 0 0 0
250 1 14.15333530271947 5.514554861034997 2.0366801605914726 0 0 0
251 1 17.661074540930002 3.5093208659935495 -3.3858198635088024 0 0 0
252 1 16.65890376915074 5.013292342366496 -1.5783198572934192 0 0 0
253 1 15.655880076060754 6.517483086783935 0.22918014995714656 0 0 0
254 1 14.652073688816827 8.021599627243978 2.0366801578273015 0 0 0
255 1 18.162275533574388 6.016014503413485 -3.385819867843797 0 0 0
256 1 17.159210849105975 7.520041225145002 -1.5783198608790079 0 0 0
257 1 16.15654531250476 9.023863859237705 0.22918014639851447 0 0 0
258 1 15.154945368339256 10.527554818583193 2.0366801545962736 0 0 0
259 1 18.663283603529862 8.522502580719392 -3.38581987234912 0 0 0
260 1 17.661068197505756 10.026352927912706 -1.578319865522521 0 0 0
261 1 16.658896818543454 11.530324920968022 0.22918014240359236 0 0 0
262 1 15.655873309310351 -13.033610497427148 2.036680150963981 0 1 0
263 1 19.164995947737353 11.029002153893595 -3.3858198766806846 0 0 0
264 1 18.162267089536527 12.533047713936968 -1.57831986948976 0 0 0
265 1 19.665907760348503 -12.53249853085199 -3.385819881526926 0 1 0
266 1 14.652067747720878 -11.529493806035026 0.2291801590206738 0 0 0
267 1 13.649395240316522 -10.025907327362608 2.0366801663700524 0 0 0
268 1 17.15920340973591 -12.031051866051213 -3.385819861456029 0 0 0
269 1 16.15653946180815 -10.527229247837253 -1.5783198526489102 0 0 0
270 1 15.154941438934387 -9.023538481029908 0.2291801548270262 0 0 0
271 1 14.153327774948835 -7.519506343513008 2.0366801623987207 0 0 0
272 1 17.661063191165468 -9.5247399669683 -3.3858198659471133 0 0 0
273 1 16.65889430338534 -8.020768363370205 -1.5783198568236882 0 0 0
274 1 15.655873127301845 -6.516577768710506 0.22918015114135296 0 0 0
275 1 14.652069537768085 -5.0124615977375 2.036680158585735 0 0 0
276 1 18.16226672362592 -7.018045746948128 -3.385819868847814 0 0 0
277 1 17.15920552291405 -5.514019472112012 -1.5783198611048102 0 0 0
278 1 16.15654343621199 -4.010197469710631 0.22918014742049936 0 0 0
279 1 15.154946572964505 -2.506507234984335 2.036680154407669 0 0 0
280 1 18.663281066161304 -4.511558224472383 -3.3858198730652793 0 0 0
281 1 17.661069520094713 -3.0077087745411752 -1.5783198645611325 0 0 0
282 1 16.658901241660203 -1.5037376875391946 0.22918014305835244 0 0 0
283 1 15.655879887896461 0.0004525689695551449 2.0366801507537597 0 0 0
284 1 19.165001281240606 -2.005060230300602 -3.3858198748501254 0 0 0
285 1 18.162275160961173 -0.5010157030384779 -1.5783198677357009 0 0 0
286 1 17.159212964323928 1.0030103715659582 0.22918013951948257 0 0 0
287 1 16.15654929440565 2.506832386303955 2.03668014675001 0 0 0
288 1 19.665919588520794 0.5015635132019156 -3.385819878704834 0 0 0
289 1 18.663288462102983 2.005471190455081 -1.578319870839015 0 0 0
290 1 17.661074540918804 3.5093208662396744 0.22918013576609592 0 0 0
291 1 16.658903770063475 5.013292342636463 2.0366801426257743 0 0 0
292 1 20.167413525435535 3.0080129173110155 -3.3858198816888256 0 0 0
293 1 19.165004584231866 4.511969373928585 -1.5783198744570148 0 0 0
294 1 18.1622755330864 6.016014503382566 0.229180132093769 0 0 0
295 1 17.15921084903769 7.520041224947429 2.0366801387351017 0 0 0
296 1 20.668687545037912 5.5146077187792475 -3.3858198856521384 0 0 0
297 1 19.665917095635194 7.018594129445651 -1.578319879128456 0 0 0
298 1 18.663283604135472 8.522502581473317 0.22918012761838724 0 0 0
299 1 17.661068198032453 10.026352927700431 2.036680135009273 0 0 0
300 1 21.169851306280307 8.021131016680174 -3.385819890713216 0 0 0
301 1 20.167405694109362 9.525045041379721 -1.578319884191114 0 0 0
302 1 19.164995947878737 11.029002153651541 0.22918012297754992 0 0 0
303 1 18.16226708946884 12.533047713425203 2.036680130463372 0 0 0
304 1 21.671305748448802 10.52765141090441 -3.385819895649853 0 0 0
305 1 20.668676994256657 12.031641295868278 -1.5783198890247556 0 0 0
306 1 19.665907760989384 -12.532498531437913 0.2291801175992585 0 1 0
307 1 22.17244893887778 -13.03390035730427 -3.3858199006822094 0 1 0
308 1 17.15920341020731 -12.031051866242509 0.22918013803135082 0 0 0
309 1 16.156539462193138 -10.527229248357807 2.036680147203233 0 0 0
310 1 18.66327622205779 -11.028590084153583 -1.5783198735717383 0 0 0
311 1 17.66106319129392 -9.524739966931115 0.22918013552768135 0 0 0
312 1 16.65889430246564 -8.020768363373458 2.0366801430915404 0 0 0
313 1 20.167399308658972 -10.026047340661766 -3.385819885527098 0 0 0
314 1 19.164992661208032 -8.522090705923409 -1.578319877107889 0 0 0
315 1 18.162266723403874 -7.018045746805322 0.22918013098715959 0 0 0
316 1 17.15920552282067 -5.514019471242641 2.036680139370997 0 0 0
317 1 20.66867636342907 -7.519451770396336 -3.385819888810461 0 0 0
318 1 19.665910246863177 -6.015465899351665 -1.5783198812807027 0 0 0
319 1 18.663281065691123 -4.511558225051939 0.22918012767366697 0 0 0
320 1 17.661069520531825 -3.007708774635491 2.036680135800718 0 0 0
321 1 21.169847882684294 -5.0129291254616 -3.385819892542935 0 0 0
322 1 20.167407117023686 -3.5090162119615833 -1.5783198833824097 0 0 0
323 1 19.165001281308648 -2.005060230189006 0.22918012528590775 0 0 0
324 1 18.162275161528683 -0.5010157029328575 2.036680132513616 0 0 0
325 1 21.671312176450883 -2.506410682368001 -3.3858198938763344 0 0 0
326 1 20.66868690482663 -1.0024220925699385 -1.5783198859888854 0 0 0
327 1 19.66591958826534 0.5015635135540197 0.22918012202055493 0 0 0
328 1 18.663288461454727 2.0054711906923046 2.0366801293008083 0 0 0
329 1 22.172463593900957 0.000161451653061917 -3.3858198964565625 0 0 0
330 1 21.169857232399764 1.5040997345515397 -1.5783198895348438 0 0 0
331 1 20.167413525673865 3.008012917021704 0.22918011818938266 0 0 0
332 1 19.16500458379754 4.511969374151773 2.0366801255244638 0 0 0
333 1 22.673825851085454 2.5066646528194223 -3.385819899577127 0 0 0
334 1 21.67131648751861 4.010618383439153 -1.5783198926025086 0 0 0
335 1 20.66868754519892 5.514607719080294 0.22918011385089024 0 0 0
336 1 19.66591709497449 7.018594129112673 2.0366801204104963 0 0 0
337 1 23.175115664746954 5.013223011002539 -3.385819903394934 0 0 0
338 1 22.1724606659223 6.5171917641128 -1.5783198972092525 0 0 0
339 1 21.169851306060195 8.021131016895106 0.2291801095887418 0 0 0
340 1 20.1674056940938 9.525045041748315 2.036680116498407 0 0 0
341 1 23.676347859363034 7.519757400717461 -3.3858199090132026 0 0 0
342 1 22.673816177268364 9.023696852669877 -1.5783199018911453 0 0 0
343 1 21.671305748196602 10.527651411255286 0.2291801047369123 0 0 0
344 1 20.668676994447765 12.031641296059204 2.036680111294947 0 0 0
345 1 24.17769828450504 10.026288212153462 -3.3858199140417655 0 0 0
346 1 23.17510247318819 11.530257046429762 -1.5783199074761374 0 0 0
347 1 22.17244893890839 -13.033900357424969 0.2291800992711235 0 1 0
348 1 24.678928811969996 12.53284225365942 -3.385819919440356 0 0 0
349 1 18.663276222095703 -11.028590085491357 2.036680126293897 0 0 0
350 1 21.169841980127813 -11.529961095351924 -1.578319893537702 0 0 0
351 1 20.167399308820833 -10.0260473410059 0.22918011468202246 0 0 0
352 1 19.164992661604117 -8.522090705973193 2.0366801230185283 0 0 0
353 1 22.673808032394206 -10.527394887183236 -3.385819904799119 0 0 0
354 1 21.67130146289277 -9.023440911255879 -1.5783198968062315 0 0 0
355 1 20.66867636307363 -7.519451770296623 0.22918011058356924 0 0 0
356 1 19.66591024710567 -6.015465900057714 2.0366801189006445 0 0 0
357 1 23.1751014675213 -8.020835517819242 -3.3858199087480747 0 0 0
358 1 22.172451855995888 -6.5168674208325195 -1.578319900130172 0 0 0
359 1 21.16984788269241 -5.012929125349894 0.22918010765775804 0 0 0
360 1 20.167407117132868 -3.509016211846486 2.0366801165512007 0 0 0
361 1 23.676343262668894 -5.514301897559478 -3.385819910748525 0 0 0
362 1 22.673817667688937 -4.010363827839578 -1.5783199027713313 0 0 0
363 1 21.671312176889117 -2.506410682765905 0.22918010597327354 0 0 0
364 1 20.668686905703225 -1.002422092301554 2.0366801139461135 0 0 0
365 1 24.17770602593535 -3.0077735007588036 -3.385819912375361 0 0 0
366 1 23.175114646539072 -1.5038062950806577 -1.5783199044010445 0 0 0
367 1 22.17246359346123 0.00016145189338878652 0.22918010370798172 0 0 0
368 1 21.16985723276622 1.5040997352041554 2.0366801108625654 0 0 0
369 1 24.67894697720736 -0.501222714137814 -3.385819914722026 0 0 0
370 1 23.67635509048405 1.002726265514747 -1.578319906784092 0 0 0
371 1 22.673825850897813 2.506664653328146 0.22918010013516604 0 0 0
372 1 21.67131648695465 4.01061838326571 2.036680108064006 0 0 0
373 1 25.180262942661955 2.00530106645909 -3.3858199186643767 0 0 0
374 1 24.17771164619819 3.5092548795340104 -1.5783199110573911 0 0 0
375 1 23.175115665046164 5.01322301111154 0.22918009555932828 0 0 0
376 1 22.172460665042635 6.517191763463346 2.0366801029386674 0 0 0
377 1 25.681553888776236 4.511846013738497 -3.385819923182052 0 0 0
378 1 24.67894355046657 6.015807201057273 -1.5783199161997683 0 0 0
379 1 23.67634785931378 7.519757400096585 0.22918009142940957 0 0 0
380 1 22.673816177270965 9.023696853411076 2.0366800977026087 0 0 0
381 1 26.182815045142604 7.018383708152546 -3.385819927936412 0 0 0
382 1 25.180250988246428 8.522333344296728 -1.5783199203166998 0 0 0
383 1 24.177698284797387 10.026288211809733 0.22918008618956953 0 0 0
384 1 23.175102472825714 11.530257047207561 2.0366800926164728 0 0 0
385 1 26.684123047685304 9.524919577253089 -3.3858199327060006 0 0 0
386 1 25.681537386815663 11.028880613728939 -1.5783199260593115 0 0 0
387 1 24.678928812106136 12.532842253225416 0.2291800809742405 0 0 0
388 1 27.18538564724301 12.031465502641462 -3.385819937074333 0 0 0
389 1 26.18280014080888 -12.532706841554715 -1.5783199304947666 0 1 0
390 1 21.169841979847533 -11.52996109577397 2.036680106277261 0 0 0
391 1 23.676336070753337 -12.031334017279997 -1.578319912020769 0 0 0
392 1 22.673808032822137 -10.527394887278557 0.22918009567151 0 0 0
393 1 21.671301462896977 -9.02344091188982 2.0366801029213124 0 0 0
394 1 25.18024060059902 -11.028757587170489 -3.3858199228168666 0 0 0
395 1 24.177692704511827 -9.52480343477874 -1.5783199163431028 0 0 0
396 1 23.175101467001156 -8.020835517988436 0.22918009226089736 0 0 0
397 1 22.17245185548296 -6.516867421396876 2.036680099787629 0 0 0
398 1 25.681535858758608 -8.522211314241538 -3.3858199269512363 0 0 0
399 1 24.678932219507374 -7.018250918347133 -1.578319919187329 0 0 0
400 1 23.676343262559456 -5.514301897569089 0.2291800895554811 0 0 0
401 1 22.67381766755851 -4.010363827691107 2.036680097592219 0 0 0
402 1 26.18280889692292 -6.015674520804721 -3.3858199300885183 0 0 0
403 1 25.18025249181065 -4.5117266018324145 -1.5783199209926642 0 0 0
404 1 24.177706026384442 -3.0077735007036868 0.2291800865572198 0 0 0
405 1 23.175114647864277 -1.5038062955376876 2.036680095915862 0 0 0
406 1 26.68413235599614 -3.509141635487085 -3.38581993137561 0 0 0
407 1 25.681552342149914 -2.005182645425707 -1.5783199241181454 0 0 0
408 1 24.678946977390126 -0.5012227145735508 0.22918008476517066 0 0 0
409 1 23.676355089481163 1.0027262643295547 2.036680092854563 0 0 0
410 1 27.18540816876697 -1.0025997846108172 -3.38581993495693 0 0 0
411 1 26.18282386696285 0.5013527758112097 -1.578319926836669 0 0 0
412 1 25.180262942282766 2.005301066012306 0.22918008172164797 0 0 0
413 1 24.17771164497897 3.5092548793277185 2.036680088468692 0 0 0
414 1 27.68670846711649 1.503931635968815 -3.3858199396166992 0 0 0
415 1 26.684139678944035 3.007885880710573 -1.5783199305342634 0 0 0
416 1 25.681553888728473 4.511846013441785 0.22918007700532558 0 0 0
417 1 24.678943549936974 6.015807201742222 2.036680084161881 0 0 0
418 1 28.18799774233395 4.010471587769159 -3.385819942154799 0 0 0
419 1 27.185404176083992 5.514429617937575 -1.578319934049551 0 0 0
420 1 26.18281504468787 7.018383708476913 0.22918007238860436 0 0 0
421 1 25.180250989637614 8.522333344768166 2.0366800797295443 0 0 0
422 1 28.689270323994037 6.517010204078256 -3.385819946645199 0 0 0
423 1 27.686693691062857 8.020963991389943 -1.5783199393994976 0 0 0
424 1 26.684123047438163 9.524919576978716 0.22918006697811696 0 0 0
425 1 25.681537387358077 11.028880613388973 2.036680073920516 0 0 0
426 1 29.190560222871824 9.023548580245889 -3.3858199505524533 0 0 0
427 1 28.187977092221985 10.527506876714343 -1.5783199440542441 0 0 0
428 1 27.185385647241674 12.031465502289526 0.2291800629655108 0 0 0
429 1 26.182800141626686 -12.532706842169032 2.036680069775514 0 1 0
430 1 29.6918336452795 11.530091583603118 -3.3858199555080315 0 0 0
431 1 28.689251480481886 13.034047231567763 -1.578319948576123 0 0 0
432 1 23.676336070794875 -12.031334017376413 2.0366800878096405 0 0 0
433 1 25.180240600552523 -11.028757587202913 0.22918007727908024 0 0 0
434 1 24.17769270473245 -9.524803434676178 2.0366800839063957 0 0 0