#LAMMPS data file
240 atoms
2 atom types
-125.1250000000 125.1250000000 xlo xhi
-13.0340632500 13.0340632500 ylo yhi
-3.6150000000 3.6150000000 zlo zhi
0.0 0.0 0.0 xy xz yz

Atoms # atomic

1 1 0.3981214900 7.0004328774 -3.3858197388
2 1 0.5339446033 9.5495606604 -3.3858197304
3 1 0.9707875316 11.9983127742 -3.3858197386
4 1 0.3981198738 -12.5506620090 -1.5783197386
5 1 0.3981192136 -6.0336294768 -3.3858197400
6 1 0.5339428268 -3.4845016711 -3.3858197315
7 1 0.9707868774 -1.0357497021 -3.3858197400
8 1 0.3981208284 0.4834021602 -1.5783197400
9 1 1.7282104869 1.5188074411 -3.3858197455
10 1 0.5339446678 3.0325296511 -1.5783197305
11 1 2.0001379446 4.0435192295 -3.3858197433
12 1 0.9707889923 5.4812813311 -1.5783197392
13 1 0.3981214902 7.0004328774 0.2291802609
14 1 2.7278916468 6.4878991565 -3.3858197561
15 1 1.7282109024 8.0358384896 -1.5783197448
16 1 0.5339446032 9.5495606605 0.2291802702
17 1 3.1011300478 9.0462954718 -3.3858197534
18 1 2.0001370481 10.5605505533 -1.5783197435
19 1 0.9707875315 11.9983127742 0.2291802614
20 1 0.3981198741 -12.5506620092 2.0366802613
21 1 3.5774671607 11.5229739618 -3.3858197574
22 1 2.7278897539 13.0049308375 -1.5783197548
23 1 1.7282089020 -11.5152561023 -3.3858197443
24 1 0.5339427627 -10.0015339098 -1.5783197301
25 1 2.0001348337 -8.9905436873 -3.3858197432
26 1 0.9707854232 -7.5527815077 -1.5783197397
27 1 0.3981192115 -6.0336294765 0.2291802596
28 1 2.7278886590 -6.5461634894 -3.3858197556
29 1 1.7282084881 -4.9982239001 -1.5783197463
30 1 0.5339428265 -3.4845016710 0.2291802680
31 1 3.1011277805 -3.9877669099 -3.3858197552
32 1 2.0001357275 -2.4735117631 -1.5783197450
33 1 0.9707868776 -1.0357497025 0.2291802594
34 1 0.3981208250 0.4834021604 2.0366802601
35 1 3.5774666558 -1.5110886694 -3.3858197603
36 1 2.7278905465 -0.0291319214 -1.5783197569
37 1 1.7282104861 1.5188074416 0.2291802539
38 1 0.5339446684 3.0325296520 2.0366802695
39 1 4.1768638310 1.0018591225 -3.3858197655
40 1 3.1011301745 2.5292642490 -1.5783197549
41 1 2.0001379445 4.0435192291 0.2291802556
42 1 0.9707889919 5.4812813314 2.0366802610
43 1 4.5781729899 3.5221350935 -3.3858197656
44 1 3.5774687809 5.0059423905 -1.5783197587
45 1 2.7278916466 6.4878991565 0.2291802436
46 1 1.7282109017 8.0358384888 2.0366802549
47 1 5.1651585101 6.0034186372 -3.3858197723
48 1 4.1768644600 7.5188902719 -1.5783197641
49 1 3.1011300477 9.0462954713 0.2291802456
50 1 2.0001370469 10.5605505532 2.0366802569
51 1 5.6235599617 8.5308234170 -3.3858197732
52 1 4.5781720209 10.0391665175 -1.5783197640
53 1 3.5774671603 11.5229739615 0.2291802421
54 1 2.7278897543 13.0049308370 2.0366802456
55 1 6.1137032871 11.0267643229 -3.3858197756
56 1 5.1651562374 12.5204504379 -1.5783197698
57 1 1.7282089012 -11.5152561019 0.2291802559
58 1 0.5339427635 -10.0015339101 2.0366802696
59 1 4.1768620161 -12.0322042620 -3.3858197631
60 1 3.1011276522 -10.5047989379 -1.5783197530
61 1 2.0001348337 -8.9905436873 0.2291802565
62 1 0.9707854232 -7.5527815073 2.0366802605
63 1 4.5781694057 -9.5119277293 -3.3858197631
64 1 3.5774650404 -8.0281203477 -1.5783197576
65 1 2.7278886595 -6.5461634898 0.2291802442
66 1 1.7282084884 -4.9982239008 2.0366802539
67 1 5.1651547465 -7.0306438503 -3.3858197702
68 1 4.1768613920 -5.5151721634 -1.5783197638
69 1 3.1011277807 -3.9877669102 0.2291802454
70 1 2.0001357278 -2.4735117626 2.0366802555
71 1 5.6235571500 -4.5032388727 -3.3858197736
72 1 4.5781703751 -2.9948959057 -1.5783197651
73 1 3.5774666555 -1.5110886694 0.2291802410
74 1 2.7278905480 -0.0291319209 2.0366802432
75 1 6.1137026912 -2.0072982308 -3.3858197779
76 1 5.1651570132 -0.5136124013 -1.5783197724
77 1 4.1768638305 1.0018591230 0.2291802348
78 1 3.1011301739 2.5292642503 2.0366802451
79 1 5.6235600646 2.0137921840 -1.5783197749
80 1 4.5781729902 3.5221350941 0.2291802351
81 1 3.5774687802 5.0059423904 2.0366802415
82 1 6.1137051544 4.5097326963 -1.5783197777
83 1 5.1651585102 6.0034186372 0.2291802303
84 1 4.1768644595 7.5188902742 2.0366802357
85 1 5.6235599620 8.5308234173 0.2291802267
86 1 4.5781720206 10.0391665176 2.0366802364
87 1 6.1137032869 11.0267643223 0.2291802240
88 1 5.1651562379 12.5204504369 2.0366802297
89 1 4.1768620152 -12.0322042620 0.2291802379
90 1 3.1011276518 -10.5047989369 2.0366802467
91 1 5.6235570416 -11.0202708873 -1.5783197718
92 1 4.5781694058 -9.5119277298 0.2291802365
93 1 3.5774650401 -8.0281203482 2.0366802423
94 1 6.1137008271 -8.5243298520 -1.5783197753
95 1 5.1651547465 -7.0306438507 0.2291802302
96 1 4.1768613915 -5.5151721637 2.0366802361
97 1 5.6235571500 -4.5032388729 0.2291802267
98 1 4.5781703752 -2.9948959050 2.0366802348
99 1 6.1137026910 -2.0072982311 0.2291802218
100 1 5.1651570119 -0.5136124012 2.0366802273
101 1 5.6235600641 2.0137921843 2.0366802252
102 1 6.1137051551 4.5097326968 2.0366802226
103 1 5.6235570424 -11.0202708881 2.0366802283
104 1 6.1137008277 -8.5243298521 2.0366802246
105 1 -0.7527090922 11.0476377520 -1.5783197160
106 1 -0.7527090943 11.0476377532 2.0366802843
107 1 -0.7527085169 8.3612750726 -1.5783197157
108 1 -0.7527085168 8.3612750729 2.0366802842
109 1 -0.7527084949 4.5306065041 0.2291802846
110 1 -0.7527084950 4.5306065041 -3.3858197160
111 1 -0.7527088974 1.8442439326 0.2291802846
112 1 -0.7527088973 1.8442439326 -3.3858197165
113 1 -0.7527099271 -1.9864249109 -1.5783197180
114 1 -0.7527099265 -1.9864249109 2.0366802823
115 1 -0.7527104996 -4.6727875725 -1.5783197168
116 1 -0.7527104999 -4.6727875724 2.0366802824
117 1 -0.7527105205 -8.5034569085 0.2291802834
118 1 -0.7527105208 -8.5034569090 -3.3858197170
119 1 -0.7527101197 -11.1898196794 0.2291802847
120 1 -0.7527101193 -11.1898196793 -3.3858197161
121 2 4.4131121467 0.4851917848 -3.3949984669
122 2 4.5489360455 3.0343191500 -3.3949984615
123 2 4.9857804391 5.4830707303 -3.3949984666
124 2 4.4131123973 7.0022221551 -1.5874984660
125 2 5.7432016945 8.0376279159 -3.3949984696
126 2 4.5489352070 9.5513500520 -1.5874984604
127 2 6.0151273204 10.5623400994 -3.3949984685
128 2 4.9857775748 12.0001023476 -1.5874984661
129 2 4.4131099101 -12.5488723634 -3.3949984655
130 2 4.5489327017 -9.9997441517 -3.3949984608
131 2 4.9857752678 -7.5509916371 -3.3949984662
132 2 4.4131096610 -6.0318394835 -1.5874984663
133 2 5.7431990272 -4.9964340322 -3.3949984703
134 2 4.5489335392 -3.4827118043 -1.5874984613
135 2 6.0151267713 -2.4717220045 -3.3949984697
136 2 4.9857781319 -1.0339600052 -1.5874984674
137 2 4.4131121454 0.4851917851 0.2200015331
138 2 5.7432019431 1.5205969669 -1.5874984711
139 2 4.5489360453 3.0343191500 0.2200015386
140 2 6.0151294536 4.0453086265 -1.5874984695
141 2 4.9857804393 5.4830707301 0.2200015333
142 2 4.4131123954 7.0022221553 2.0275015341
143 2 5.7432016944 8.0376279157 0.2200015301
144 2 4.5489352072 9.5513500523 2.0275015396
145 2 6.0151273205 10.5623400994 0.2200015314
146 2 4.9857775746 12.0001023481 2.0275015337
147 2 4.4131099112 -12.5488723636 0.2200015342
148 2 5.7431987788 -11.5134663337 -1.5874984697
149 2 4.5489327016 -9.9997441518 0.2200015392
150 2 6.0151246392 -8.9887537823 -1.5874984689
151 2 4.9857752679 -7.5509916374 0.2200015333
152 2 4.4131096587 -6.0318394835 2.0275015337
153 2 5.7431990270 -4.9964340326 0.2200015296
154 2 4.5489335386 -3.4827118040 2.0275015385
155 2 6.0151267712 -2.4717220044 0.2200015303
156 2 4.9857781323 -1.0339600050 2.0275015327
157 2 5.7432019433 1.5205969665 2.0275015291
158 2 6.0151294534 4.0453086266 2.0275015305
159 2 5.7431987791 -11.5134663335 2.0275015301
160 2 6.0151246397 -8.9887537821 2.0275015312
161 2 -0.2183175482 6.4896891656 -1.5874984286
162 2 3.2622799109 -11.1880300302 -1.5874984526
163 2 1.5387845812 12.0001026090 -1.5874984383
164 2 3.2622799109 -11.1880300303 2.0275015478
165 2 -0.2183194791 -6.5443741549 -1.5874984285
166 2 3.2622800427 -4.6709977867 0.2200015475
167 2 1.5387843376 -1.0339602452 -1.5874984390
168 2 -0.2183178453 -0.0273422372 0.2200015713
169 2 0.7813629830 1.5205971266 -1.5874984347
170 2 3.2622823989 1.8460334714 -1.5874984528
171 2 0.5094362813 4.0453091155 -1.5874984357
172 2 1.5387854186 5.4830711571 0.2200015616
173 2 -0.2183175490 6.4896891655 2.0275015714
174 2 2.1114524259 7.0022228722 -1.5874984390
175 2 0.7813628513 8.0376285251 0.2200015656
176 2 0.7813609117 -11.5134664669 2.0275015656
177 2 1.9756286709 9.5513505620 -1.5874984441
178 2 0.5094355893 10.5623405826 0.2200015642
179 2 1.5387845816 12.0001026090 2.0275015616
180 2 1.9756266494 -9.9997441950 -3.3949984438
181 2 3.2622822667 8.3630644777 0.2200015482
182 2 3.2622813197 11.0494271993 0.2200015477
183 2 0.7813609118 -11.5134664672 -1.5874984340
184 2 -0.2183191819 13.0067204961 0.2200015717
185 2 0.5094342497 -8.9887542416 -1.5874984355
186 2 1.5387835007 -7.5509920426 0.2200015614
187 2 -0.2183194798 -6.5443741554 2.0275015715
188 2 2.1114501287 -6.0318401780 -1.5874984391
189 2 0.7813610426 -4.9964346152 0.2200015656
190 2 3.2622800429 -4.6709977868 -3.3949984530
191 2 1.9756272041 -3.4827122957 -1.5874984445
192 2 0.5094349403 -2.4717224600 0.2200015637
193 2 1.5387843378 -1.0339602451 2.0275015612
194 2 -0.2183178448 -0.0273422372 -3.3949984284
195 2 3.2622809913 -1.9846351699 0.2200015460
196 2 2.1114522723 0.4851913166 0.2200015607
197 2 0.7813629831 1.5205971265 2.0275015656
198 2 3.2622823993 1.8460334717 2.0275015471
199 2 1.9756292270 3.0343192121 0.2200015557
200 2 0.5094362810 4.0453091151 2.0275015643
201 2 1.5387854187 5.4830711570 -3.3949984383
202 2 3.2622827176 4.5323960065 -1.5874984534
203 2 2.1114524278 7.0022228724 2.0275015611
204 2 0.7813628514 8.0376285251 -3.3949984344
205 2 1.9756286712 9.5513505623 2.0275015558
206 2 0.5094355893 10.5623405828 -3.3949984355
207 2 3.2622822666 8.3630644776 -3.3949984523
208 2 3.2622813196 11.0494271993 -3.3949984527
209 2 1.9756266494 -9.9997441950 0.2200015557
210 2 -0.2183191824 13.0067204961 -3.3949984283
211 2 2.1114502842 -12.5488718724 0.2200015612
212 2 0.5094342501 -8.9887542420 2.0275015644
213 2 1.5387835007 -7.5509920424 -3.3949984384
214 2 3.2622795940 -8.5016672254 -1.5874984531
215 2 2.1114501307 -6.0318401776 2.0275015608
216 2 0.7813610427 -4.9964346150 -3.3949984345
217 2 1.9756272040 -3.4827122953 2.0275015554
218 2 0.5094349404 -2.4717224600 -3.3949984360
219 2 3.2622809913 -1.9846351696 -3.3949984535
220 2 2.1114522713 0.4851913165 -3.3949984394
221 2 1.9756292267 3.0343192123 -3.3949984445
222 2 3.2622827174 4.5323960062 2.0275015469
223 2 2.1114502857 -12.5488718722 -3.3949984389
224 2 3.2622795945 -8.5016672261 2.0275015470
225 2 -1.0678953048 11.5247637280 -1.5874984262
226 2 -1.0678953049 11.5247637279 2.0275015739
227 2 -0.5915566625 9.0480855019 -1.5874984292
228 2 -0.5915566627 9.0480855022 2.0275015709
229 2 -1.0678943937 5.0077324219 0.2200015740
230 2 -1.0678943936 5.0077324219 -3.3949984262
231 2 -0.5915563086 2.5310541314 0.2200015705
232 2 -0.5915563085 2.5310541310 -3.3949984288
233 2 -1.0678952106 -1.5092990687 -1.5874984262
234 2 -1.0678952106 -1.5092990686 2.0275015736
235 2 -0.5915578672 -3.9859775811 -1.5874984293
236 2 -0.5915578676 -3.9859775810 2.0275015707
237 2 -1.0678961207 -8.0263310124 0.2200015739
238 2 -1.0678961205 -8.0263310125 -3.3949984263
239 2 -0.5915582195 -10.5030094604 0.2200015710
240 2 -0.5915582194 -10.5030094604 -3.3949984287
