#LAMMPS data file
3190 atoms
2 atom types
-125.2250000000 125.2250000000 xlo xhi
-13.0340632500 13.0340632500 ylo yhi
-3.6150000000 3.6150000000 zlo zhi
0.0 0.0 0.0 xy xz yz

Atoms # atomic

1 1 -0.2556567121 6.7333149190 -1.5829090881
2 1 0.1664738844 -6.6636433857 -3.3904090854
3 1 0.8002635227 -4.2782208862 -3.3904090867
4 1 0.8375012620 -1.7921931384 -3.3904090858
5 1 -0.3882955157 0.3538860126 0.2245909109
6 1 1.9193469639 0.7336661671 -3.3904090839
7 1 0.6834912057 1.8020064100 -1.5829090855
8 1 1.9430158126 3.2388588088 -3.3904090831
9 1 0.5030827510 4.3186982971 -1.5829090849
10 1 -0.2556567121 6.7333149191 2.0320909121
11 1 1.6086721098 5.7254982731 -3.3904090840
12 1 0.1664738842 -6.6636433856 0.2245909145
13 1 1.6663104307 -5.6812918061 -1.5829090849
14 1 0.8002635222 -4.2782208859 0.2245909141
15 1 3.2099075282 -4.6620824785 -3.3904090835
16 1 2.0844574362 -3.1614208838 -1.5829090847
17 1 0.8375012620 -1.7921931383 0.2245909139
18 1 -0.3882955171 0.3538860125 -3.3904090889
19 1 3.5509192603 -2.1332470196 -3.3904090826
20 1 2.5176642052 -0.7254046701 -1.5829090831
21 1 1.9193469635 0.7336661668 0.2245909169
22 1 0.6834912062 1.8020064098 2.0320909145
23 1 4.2497304186 0.3449863153 -3.3904090801
24 1 3.1935774885 1.8961744541 -1.5829090811
25 1 1.9430158125 3.2388588088 0.2245909173
26 1 0.5030827511 4.3186982973 2.0320909149
27 1 4.5149978337 2.9366394818 -3.3904090794
28 1 3.2415061135 4.5490383940 -1.5829090808
29 1 1.6086721098 5.7254982732 0.2245909162
30 1 4.9830632892 5.3732144927 -3.3904090778
31 1 4.3105415060 6.8710398989 -1.5829090777
32 1 1.6663104307 -5.6812918054 2.0320909153
33 1 4.1676307387 -6.1653728701 -1.5829090822
34 1 3.2099075284 -4.6620824788 0.2245909170
35 1 2.0844574361 -3.1614208845 2.0320909153
36 1 5.6672958873 -5.1570125097 -3.3904090803
37 1 4.6234935577 -3.6337583296 -1.5829090814
38 1 3.5509192604 -2.1332470195 0.2245909170
39 1 2.5176642052 -0.7254046695 2.0320909168
40 1 6.1047813623 -2.6355349806 -3.3904090796
41 1 5.1061259016 -1.1461696694 -1.5829090803
42 1 4.2497304181 0.3449863156 0.2245909201
43 1 3.1935774880 1.8961744539 2.0320909188
44 1 5.6474620639 1.3907138185 -1.5829090787
45 1 4.5149978338 2.9366394819 0.2245909204
46 1 3.2415061134 4.5490383944 2.0320909194
47 1 5.9860962348 3.9127417607 -1.5829090774
48 1 4.9830632892 5.3732144928 0.2245909222
49 1 4.3105415058 6.8710398988 2.0320909223
50 1 4.1676307385 -6.1653728704 2.0320909177
51 1 5.6672958873 -5.1570125097 0.2245909197
52 1 4.6234935582 -3.6337583299 2.0320909184
53 1 6.1047813625 -2.6355349807 0.2245909207
54 1 5.1061259015 -1.1461696695 2.0320909201
55 1 5.6474620640 1.3907138188 2.0320909216
56 1 5.9860962351 3.9127417608 2.0320909227
57 1 -1.0837989392 5.2584303840 0.2245909117
58 1 -1.0837989390 5.2584303839 -3.3904090880
59 1 -0.6523906363 2.8359856027 0.2245909128
60 1 -0.6523906363 2.8359856028 -3.3904090871
61 1 -0.9914598582 -1.1835468773 -1.5829090893
62 1 -0.9914598583 -1.1835468772 2.0320909109
63 1 -0.5785509411 -3.6068120300 -1.5829090872
64 1 -0.5785509407 -3.6068120305 2.0320909124
65 1 3.6114834380 -8.6644830542 -1.5829090826
66 1 2.6559663599 -7.1547950331 0.2245909160
67 2 3.5509192603 -2.1332470196 -3.3904090826
68 1 5.1446953365 -7.6722822755 -3.3904090810
69 1 4.1676307387 -6.1653728701 -1.5829090822
70 2 1.6663104307 -5.6812918054 2.0320909153
71 2 0.8375012620 -1.7921931384 -3.3904090858
72 1 5.6672958873 -5.1570125097 -3.3904090803
73 1 4.6234935577 -3.6337583296 -1.5829090814
74 2 3.5509192604 -2.1332470195 0.2245909170
75 2 1.9193469639 0.7336661671 -3.3904090839
76 1 6.1047813623 -2.6355349806 -3.3904090796
77 1 5.1061259016 -1.1461696694 -1.5829090803
78 1 4.2497304181 0.3449863156 0.2245909201
79 2 3.1935774880 1.8961744539 2.0320909188
80 1 6.6702632196 -0.1415004356 -3.3904090777
81 1 5.6474620639 1.3907138185 -1.5829090787
82 1 4.5149978338 2.9366394819 0.2245909204
83 2 1.9430158126 3.2388588088 -3.3904090831
84 1 7.0653378593 2.3973494881 -3.3904090764
85 1 5.9860962348 3.9127417607 -1.5829090774
86 1 4.9830632892 5.3732144928 0.2245909222
87 1 4.3105415058 6.8710398988 2.0320909223
88 1 7.5630496347 4.8747489648 -3.3904090748
89 1 6.6850590217 6.3590414422 -1.5829090755
90 1 5.7125241188 7.8860358789 0.2245909236
91 1 4.6013268168 9.4118108815 2.0320909210
92 1 8.1706262762 7.3762611060 -3.3904090739
93 1 7.1354542768 8.8943432467 -1.5829090751
94 1 6.0894889965 10.3972306845 0.2245909233
95 1 5.1106413157 11.8766672178 2.0320909220
96 1 8.6226716065 9.8913339037 -3.3904090731
97 1 7.6231266135 11.3907875228 -1.5829090746
98 1 6.6412182176 12.8881622447 0.2245909237
99 1 9.1396568205 12.3923341449 -3.3904090729
100 1 4.1572072311 -12.7145976882 0.2245909205
101 1 3.1400903379 -11.1785998286 2.0320909182
102 1 5.6362549345 -11.6810358475 -1.5829090781
103 1 4.6163940069 -10.1784432222 0.2245909196
104 1 3.6114834375 -8.6644830540 2.0320909175
105 1 7.1318452929 -10.6705814461 -3.3904090769
106 1 6.1272227424 -9.1724379052 -1.5829090790
107 1 5.1446953363 -7.6722822756 0.2245909192
108 1 4.1676307385 -6.1653728704 2.0320909177
109 1 7.6451785363 -8.1672167403 -3.3904090777
110 1 6.6566758274 -6.6658920345 -1.5829090789
111 1 5.6672958873 -5.1570125097 0.2245909197
112 1 4.6234935582 -3.6337583299 2.0320909184
113 1 8.1535747893 -5.6559803096 -3.3904090769
114 1 7.1345048335 -4.1448102660 -1.5829090786
115 1 6.1047813625 -2.6355349807 0.2245909207
116 1 5.1061259015 -1.1461696695 2.0320909201
117 1 8.6273661436 -3.1428311978 -3.3904090759
118 1 7.6278482558 -1.6427042304 -1.5829090768
119 1 6.6702632201 -0.1415004355 0.2245909222
120 1 5.6474620640 1.3907138188 2.0320909216
121 1 9.1442350255 -0.6383367997 -3.3904090744
122 1 8.1294154137 0.8767069860 -1.5829090752
123 1 7.0653378596 2.3973494883 0.2245909238
124 1 5.9860962351 3.9127417608 2.0320909227
125 1 9.5950747466 1.8817685754 -3.3904090728
126 1 8.5577370763 3.3879979972 -1.5829090740
127 1 7.5630496347 4.8747489649 0.2245909250
128 1 6.6850590219 6.3590414420 2.0320909245
129 1 10.0981047353 4.3746576247 -3.3904090711
130 1 9.1438663736 5.8678731200 -1.5829090722
131 1 8.1706262763 7.3762611060 0.2245909264
132 1 7.1354542771 8.8943432469 2.0320909248
133 1 10.6522978313 6.8759980285 -3.3904090702
134 1 9.6434165937 8.3850274598 -1.5829090718
135 1 8.6226716064 9.8913339037 0.2245909266
136 1 7.6231266137 11.3907875226 2.0320909255
137 1 11.1375318582 9.3871541309 -3.3904090695
138 1 10.1340759535 10.8900728906 -1.5829090713
139 1 9.1396568206 12.3923341448 0.2245909273
140 1 11.6435141329 11.8917650014 -3.3904090694
141 1 5.6362549345 -11.6810358477 2.0320909219
142 1 8.1403699949 -12.1722394573 -1.5829090749
143 1 7.1318452927 -10.6705814460 0.2245909227
144 1 6.1272227426 -9.1724379053 2.0320909212
145 1 9.6413212861 -11.1686982036 -3.3904090735
146 1 8.6392202229 -9.6668450708 -1.5829090756
147 1 7.6451785362 -8.1672167403 0.2245909225
148 1 6.6566758276 -6.6658920344 2.0320909210
149 1 10.1487054080 -8.6638381796 -3.3904090736
150 1 9.1529184891 -7.1612280846 -1.5829090751
151 1 8.1535747894 -5.6559803092 0.2245909229
152 1 7.1345048339 -4.1448102659 2.0320909216
153 1 10.6516275708 -6.1549567503 -3.3904090730
154 1 9.6416466957 -4.6484026324 -1.5829090746
155 1 8.6273661436 -3.1428311975 0.2245909242
156 1 7.6278482560 -1.6427042301 2.0320909231
157 1 11.1390847845 -3.6451863834 -3.3904090718
158 1 10.1360485282 -2.1422522986 -1.5829090732
159 1 9.1442350255 -0.6383367996 0.2245909259
160 1 8.1294154136 0.8767069860 2.0320909247
161 1 11.6395403019 -1.1378743036 -3.3904090701
162 1 10.6276499493 0.3707191815 -1.5829090715
163 1 9.5950747465 1.8817685753 0.2245909274
164 1 8.5577370764 3.3879979977 2.0320909260
165 1 12.1146703191 1.3743072643 -3.3904090684
166 1 11.0957544783 2.8783669830 -1.5829090698
167 1 10.0981047354 4.3746576245 0.2245909286
168 1 9.1438663741 5.8678731200 2.0320909276
169 1 12.6178482175 3.8738783552 -3.3904090663
170 1 11.6357715860 5.3722789325 -1.5829090684
171 1 10.6522978312 6.8759980284 0.2245909301
172 1 9.6434165940 8.3850274601 2.0320909282
173 1 13.1472166289 6.3762915383 -3.3904090654
174 1 12.1463773826 7.8817544811 -1.5829090677
175 1 11.1375318582 9.3871541305 0.2245909303
176 1 10.1340759537 10.8900728908 2.0320909286
177 1 13.6458982799 8.8847772412 -3.3904090652
178 1 12.6428158828 10.3885137850 -1.5829090675
179 1 11.6435141329 11.8917650014 0.2245909303
180 1 14.1491051850 11.3906809875 -3.3904090662
181 1 13.1488374642 12.8944327034 -1.5829090682
182 1 8.1403699949 -12.1722394571 2.0320909251
183 1 10.6441161665 -12.6725143656 -1.5829090716
184 1 9.6413212859 -11.1686982036 0.2245909260
185 1 8.6392202232 -9.6668450712 2.0320909245
186 1 12.1476741798 -11.6697872385 -3.3904090702
187 1 11.1466974803 -10.1663736332 -1.5829090721
188 1 10.1487054082 -8.6638381799 0.2245909262
189 1 9.1529184889 -7.1612280844 2.0320909244
190 1 12.6525898567 -9.1636673405 -3.3904090706
191 1 11.6534095182 -7.6598625389 -1.5829090721
192 1 10.6516275712 -6.1549567502 0.2245909268
193 1 9.6416466958 -4.6484026323 2.0320909255
194 1 13.1536497050 -6.6554901638 -3.3904090702
195 1 12.1474670473 -5.1500721646 -1.5829090711
196 1 11.1390847841 -3.6451863832 0.2245909280
197 1 10.1360485288 -2.1422522988 2.0320909273
198 1 13.6466919752 -4.1467994270 -3.3904090688
199 1 12.6419869656 -2.6425883352 -1.5829090694
200 1 11.6395403018 -1.1378743035 0.2245909299
201 1 10.6276499495 0.3707191812 2.0320909288
202 1 14.1424886854 -1.6388665775 -3.3904090662
203 1 13.1327885353 -0.1326248349 -1.5829090672
204 1 12.1146703190 1.3743072644 0.2245909317
205 1 11.0957544784 2.8783669831 2.0320909303
206 1 14.6289830366 0.8700538026 -3.3904090633
207 1 13.6181601841 2.3737241917 -1.5829090647
208 1 12.6178482174 3.8738783553 0.2245909335
209 1 11.6357715861 5.3722789327 2.0320909317
210 1 15.1315970920 3.3726988058 -3.3904090616
211 1 14.1384904706 4.8735965940 -1.5829090632
212 1 13.1472166290 6.3762915379 0.2245909346
213 1 12.1463773825 7.8817544816 2.0320909324
214 1 15.6487260249 5.8762006366 -3.3904090602
215 1 14.6495119565 7.3802570230 -1.5829090628
216 1 13.6458982800 8.8847772408 0.2245909348
217 1 12.6428158825 10.3885137850 2.0320909323
218 1 16.1521848614 8.3832399166 -3.3904090607
219 1 15.1499885359 9.8870859467 -1.5829090633
220 1 14.1491051852 11.3906809874 0.2245909338
221 1 13.1488374640 12.8944327030 2.0320909317
222 1 16.6550596335 10.8895382310 -3.3904090613
223 1 15.6541884710 12.3932818612 -1.5829090640
224 1 10.6441161666 -12.6725143659 2.0320909284
225 1 12.1476741797 -11.6697872384 0.2245909294
226 1 11.1466974802 -10.1663736339 2.0320909277
227 1 14.6532319910 -12.1710080111 -3.3904090665
228 1 13.6523867614 -10.6672479624 -1.5829090690
229 1 12.6525898567 -9.1636673405 0.2245909294
230 1 11.6534095180 -7.6598625385 2.0320909279
231 1 15.1568515655 -9.6643923818 -3.3904090670
232 1 14.1560587195 -8.1602524593 -1.5829090688
233 1 13.1536497051 -6.6554901639 0.2245909301
234 1 12.1474670473 -5.1500721642 2.0320909290
235 1 15.6572982315 -7.1565888925 -3.3904090666
236 1 14.6527025689 -5.6516385720 -1.5829090679
237 1 13.6466919750 -4.1467994272 0.2245909314
238 1 12.6419869654 -2.6425883350 2.0320909306
239 1 16.1529187113 -4.6483967114 -3.3904090646
240 1 15.1477974083 -3.1437744935 -1.5829090656
241 1 14.1424886852 -1.6388665777 0.2245909337
242 1 13.1327885356 -0.1326248352 2.0320909327
243 1 16.6481481449 -2.1405094028 -3.3904090620
244 1 15.6402525479 -0.6352499942 -1.5829090626
245 1 14.6289830366 0.8700538027 0.2245909365
246 1 13.6181601840 2.3737241913 2.0320909351
247 1 17.1404124450 0.3670785357 -3.3904090589
248 1 16.1333066208 1.8707628076 -1.5829090598
249 1 15.1315970920 3.3726988061 0.2245909386
250 1 14.1384904702 4.8735965938 2.0320909369
251 1 17.6425236274 2.8712865452 -3.3904090565
252 1 16.6446403630 4.3734637772 -1.5829090582
253 1 15.6487260251 5.8762006364 0.2245909398
254 1 14.6495119566 7.3802570230 2.0320909371
255 1 18.1532576591 5.3756363709 -3.3904090555
256 1 17.1537964112 6.8792336990 -1.5829090576
257 1 16.1521848616 8.3832399168 0.2245909393
258 1 15.1499885361 9.8870859466 2.0320909366
259 1 18.6579972856 7.8820087087 -3.3904090561
260 1 17.6563688357 9.3858191153 -1.5829090583
261 1 16.6550596337 10.8895382311 0.2245909388
262 1 15.6541884707 12.3932818610 2.0320909358
263 1 19.1610279137 10.3883886548 -3.3904090563
264 1 18.1598133801 11.8921626558 -1.5829090594
265 1 19.6641908127 12.8948787152 -3.3904090565
266 1 14.6532319911 -12.1710080109 0.2245909336
267 1 13.6523867611 -10.6672479628 2.0320909311
268 1 17.1586793687 -12.6721388802 -3.3904090620
269 1 16.1576171347 -11.1682834213 -1.5829090644
270 1 15.1568515654 -9.6643923818 0.2245909334
271 1 14.1560587195 -8.1602524597 2.0320909312
272 1 17.6615097778 -10.1653586308 -3.3904090621
273 1 16.6599247156 -8.6611639895 -1.5829090646
274 1 15.6572982314 -7.1565888928 0.2245909336
275 1 14.6527025689 -5.6516385719 2.0320909321
276 1 18.1617914057 -7.6578178109 -3.3904090617
277 1 17.1578828097 -6.1531394453 -1.5829090635
278 1 16.1529187110 -4.6483967115 0.2245909352
279 1 15.1477974081 -3.1437744934 2.0320909344
280 1 18.6588213175 -5.1499684523 -3.3904090600
281 1 17.6538393355 -3.6453210638 -1.5829090611
282 1 16.6481481448 -2.1405094028 0.2245909383
283 1 15.6402525477 -0.6352499939 2.0320909371
284 1 19.1547525580 -2.6423125408 -3.3904090572
285 1 18.1482414951 -1.1375472154 -1.5829090582
286 1 17.1404124451 0.3670785359 0.2245909410
287 1 16.1333066211 1.8707628073 2.0320909401
288 1 19.6501740227 -0.1352858426 -3.3904090549
289 1 18.6448743212 1.3684675039 -1.5829090558
290 1 17.6425236273 2.8712865454 0.2245909433
291 1 16.6446403629 4.3734637775 2.0320909420
292 1 20.1519272954 2.3697756905 -3.3904090529
293 1 19.1518122634 3.8726404656 -1.5829090541
294 1 18.1532576592 5.3756363709 0.2245909446
295 1 17.1537964112 6.8792336992 2.0320909421
296 1 20.6591307680 4.8747343428 -3.3904090519
297 1 19.6590299156 6.3782356333 -1.5829090539
298 1 18.6579972858 7.8820087085 0.2245909440
299 1 17.6563688362 9.3858191154 2.0320909415
300 1 21.1638477867 7.3808496138 -3.3904090514
301 1 20.1624428961 8.8846219699 -1.5829090537
302 1 19.1610279137 10.3883886549 0.2245909435
303 1 18.1598133803 11.8921626560 2.0320909408
304 1 21.6669771935 9.8872253469 -3.3904090509
305 1 20.6655553072 11.3910324713 -1.5829090540
306 1 19.6641908128 12.8948787149 0.2245909431
307 1 22.1698027719 12.3937471146 -3.3904090507
308 1 17.1586793690 -12.6721388803 0.2245909383
309 1 16.1576171350 -11.1682834219 2.0320909356
310 1 18.6628461542 -11.6693471062 -1.5829090594
311 1 17.6615097778 -10.1653586308 0.2245909380
312 1 16.6599247160 -8.6611639894 2.0320909356
313 1 20.1665111640 -10.6664276428 -3.3904090561
314 1 19.1645146898 -9.1622461337 -1.5829090590
315 1 18.1617914054 -7.6578178111 0.2245909386
316 1 17.1578828093 -6.1531394448 2.0320909365
317 1 20.6667993421 -8.1590840260 -3.3904090553
318 1 19.6632264106 -6.6545801038 -1.5829090578
319 1 18.6588213175 -5.1499684525 0.2245909402
320 1 17.6538393355 -3.6453210634 2.0320909385
321 1 21.1647455940 -5.6515043744 -3.3904090540
322 1 20.1600953215 -4.1469522432 -1.5829090560
323 1 19.1547525581 -2.6423125407 0.2245909425
324 1 18.1482414947 -1.1375472153 2.0320909416
325 1 21.6616438704 -3.1440924184 -3.3904090523
326 1 20.6561514945 -1.6396050243 -1.5829090538
327 1 19.6501740225 -0.1352858423 0.2245909451
328 1 18.6448743211 1.3684675038 2.0320909443
329 1 22.1589160759 -0.6373119618 -3.3904090508
330 1 21.1545598183 0.8665001288 -1.5829090520
331 1 20.1519272955 2.3697756907 0.2245909470
332 1 19.1518122629 3.8726404655 2.0320909461
333 1 22.6604318997 1.8682450768 -3.3904090492
334 1 21.6592038350 3.3714964411 -1.5829090506
335 1 20.6591307680 4.8747343430 0.2245909485
336 1 19.6590299154 6.3782356334 2.0320909465
337 1 23.1655817675 4.3736298464 -3.3904090482
338 1 22.1648742621 5.8771586227 -1.5829090494
339 1 21.1638477868 7.3808496137 0.2245909486
340 1 20.1624428967 8.8846219697 2.0320909464
341 1 23.6698560198 6.8796819019 -3.3904090467
342 1 22.6684555636 8.3834379944 -1.5829090488
343 1 21.6669771934 9.8872253466 0.2245909489
344 1 20.6655553072 11.3910324709 2.0320909462
345 1 24.1729431657 9.3860428780 -3.3904090457
346 1 23.1713694178 10.8898750940 -1.5829090480
347 1 22.1698027719 12.3937471144 0.2245909493
348 1 24.6755192480 11.8925811241 -3.3904090450
349 1 18.6628461543 -11.6693471061 2.0320909405
350 1 21.1682074190 -12.1704491712 -1.5829090533
351 1 20.1665111639 -10.6664276429 0.2245909441
352 1 19.1645146899 -9.1622461337 2.0320909410
353 1 22.6717907350 -11.1675654725 -3.3904090501
354 1 21.6695667804 -9.6634100180 -1.5829090525
355 1 20.6667993420 -8.1590840260 0.2245909446
356 1 19.6632264104 -6.6545801037 2.0320909420
357 1 23.1721549686 -8.6603745086 -3.3904090492
358 1 22.1687813128 -7.1559906572 -1.5829090516
359 1 21.1647455943 -5.6515043745 0.2245909461
360 1 20.1600953215 -4.1469522429 2.0320909439
361 1 23.6707746410 -6.1530108202 -3.3904090479
362 1 22.6664870191 -4.6485725090 -1.5829090502
363 1 21.6616438702 -3.1440924181 0.2245909474
364 1 20.6561514945 -1.6396050244 2.0320909462
365 1 24.1685749957 -3.6458035697 -3.3904090469
366 1 23.1638217675 -2.1414826505 -1.5829090492
367 1 22.1589160757 -0.6373119616 0.2245909493
368 1 21.1545598179 0.8665001291 2.0320909480
369 1 24.6670018252 -1.1391354483 -3.3904090459
370 1 23.6631813767 0.3647200074 -1.5829090478
371 1 22.6604318997 1.8682450770 0.2245909509
372 1 21.6592038351 3.3714964411 2.0320909495
373 1 25.1683674734 1.3667260537 -3.3904090455
374 1 24.1665526401 2.8702066820 -1.5829090467
375 1 23.1655817674 4.3736298466 0.2245909522
376 1 22.1648742624 5.8771586233 2.0320909507
377 1 25.6722642258 3.8724098772 -3.3904090441
378 1 24.6710748232 5.3760008606 -1.5829090454
379 1 23.6698560200 6.8796819020 0.2245909531
380 1 22.6684555641 8.3834379943 2.0320909514
381 1 26.1760154740 6.3784831001 -3.3904090424
382 1 25.1745096548 7.8822422750 -1.5829090441
383 1 24.1729431655 9.3860428778 0.2245909544
384 1 23.1713694176 10.8898750941 2.0320909520
385 1 26.6789571851 8.8848388142 -3.3904090409
386 1 25.6772519296 10.3886891243 -1.5829090429
387 1 24.6755192479 11.8925811240 0.2245909548
388 1 27.1813366636 11.3913822980 -3.3904090407
389 1 26.1793879428 12.8953407781 -1.5829090426
390 1 21.1682074186 -12.1704491714 2.0320909465
391 1 23.6737244957 -12.6715967247 -1.5829090475
392 1 22.6717907349 -11.1675654724 0.2245909500
393 1 21.6695667807 -9.6634100178 2.0320909473
394 1 25.1772923871 -11.6687554587 -3.3904090446
395 1 24.1749361028 -10.1646271795 -1.5829090469
396 1 23.1721549688 -8.6603745087 0.2245909509
397 1 22.1687813126 -7.1559906572 2.0320909486
398 1 25.6777603947 -9.1616857976 -3.3904090434
399 1 24.6745296431 -7.6573903982 -1.5829090455
400 1 23.6707746409 -6.1530108204 0.2245909520
401 1 22.6664870187 -4.6485725090 2.0320909497
402 1 26.1769073697 -6.6544941012 -3.3904090423
403 1 25.1729504101 -5.1501571182 -1.5829090446
404 1 24.1685749956 -3.6458035696 0.2245909529
405 1 23.1638217673 -2.1414826506 2.0320909509
406 1 26.6754591531 -4.1474456687 -3.3904090421
407 1 25.6712427755 -2.6432295348 -1.5829090438
408 1 24.6670018250 -1.1391354482 0.2245909537
409 1 23.6631813767 0.3647200074 2.0320909521
410 1 27.1746463512 -1.6408309089 -3.3904090412
411 1 26.1711570161 -0.1369443585 -1.5829090432
412 1 25.1683674733 1.3667260538 0.2245909546
413 1 24.1665526404 2.8702066822 2.0320909534
414 1 27.6759219299 0.8652271462 -3.3904090409
415 1 26.6737831983 2.3688512109 -1.5829090429
416 1 25.6722642258 3.8724098772 0.2245909558
417 1 24.6710748231 5.3760008607 2.0320909546
418 1 28.1790209250 3.3711239698 -3.3904090399
419 1 27.1774702860 4.8747804401 -1.5829090414
420 1 26.1760154739 6.3784831001 0.2245909576
421 1 25.1745096550 7.8822422748 2.0320909562
422 1 28.6822892713 5.8772504873 -3.3904090385
423 1 27.6806365615 7.3810249841 -1.5829090396
424 1 26.6789571849 8.8848388141 0.2245909589
425 1 25.6772519295 10.3886891243 2.0320909569
426 1 29.1850337089 8.3836121586 -3.3904090374
427 1 28.1832065956 9.8874766412 -1.5829090390
428 1 27.1813366635 11.3913822978 0.2245909594
429 1 26.1793879429 12.8953407780 2.0320909574
430 1 29.6872483645 10.8901549769 -3.3904090366
431 1 28.6851803348 12.3941176269 -1.5829090382
432 1 23.6737244955 -12.6715967251 2.0320909526
433 1 25.1772923869 -11.6687554589 0.2245909554
434 1 24.1749361028 -10.1646271801 2.0320909533
435 1 27.6829717526 -12.1699848683 -3.3904090400
436 1 26.6805361706 -10.6658824283 -1.5829090415
437 1 25.6777603947 -9.1616857977 0.2245909567
438 1 24.6745296434 -7.6573903982 2.0320909547
439 1 28.1835515851 -9.6630135118 -3.3904090387
440 1 27.1804358257 -8.1587865360 -1.5829090405
441 1 26.1769073696 -6.6544941013 0.2245909574
442 1 25.1729504103 -5.1501571186 2.0320909553
443 1 28.6831221791 -7.1559580406 -3.3904090380
444 1 27.6794451987 -5.6517037095 -1.5829090398
445 1 26.6754591532 -4.1474456688 0.2245909586
446 1 25.6712427749 -2.6432295347 2.0320909561
447 1 29.1822729378 -4.6490294974 -3.3904090371
448 1 28.1784496743 -3.1448825202 -1.5829090389
449 1 27.1746463513 -1.6408309089 0.2245909590
450 1 26.1711570159 -0.1369443584 2.0320909566
451 1 29.6819840093 -2.1424414716 -3.3904090365
452 1 28.6787151659 -0.6385330070 -1.5829090386
453 1 27.6759219300 0.8652271463 0.2245909592
454 1 26.6737831988 2.3688512108 2.0320909571
455 1 30.1832095306 0.3637485940 -3.3904090359
456 1 29.1808852939 1.8674666545 -1.5829090380
457 1 28.1790209251 3.3711239699 0.2245909600
458 1 27.1774702859 4.8747804401 2.0320909589
459 1 30.6857818760 2.8697998089 -3.3904090349
460 1 29.6839654154 4.3735147402 -1.5829090370
461 1 28.6822892711 5.8772504873 0.2245909615
462 1 27.6806365616 7.3810249840 2.0320909605
463 1 31.1886412776 5.3759876838 -3.3904090339
464 1 30.1868365047 6.8797834586 -1.5829090358
465 1 29.1850337087 8.3836121586 0.2245909627
466 1 28.1832065952 9.8874766411 2.0320909611
467 1 31.6911742792 7.8823632686 -3.3904090336
468 1 30.6892339043 9.3862399889 -1.5829090353
469 1 29.6872483643 10.8901549768 0.2245909634
470 1 28.6851803345 12.3941176271 2.0320909618
471 1 32.1932456251 10.3889033439 -3.3904090331
472 1 31.1910836195 11.8928669762 -1.5829090345
473 1 32.6947323412 12.8956006795 -3.3904090326
474 1 27.6829717528 -12.1699848684 0.2245909599
475 1 26.6805361707 -10.6658824282 2.0320909583
476 1 30.1887941843 -12.6712440107 -3.3904090361
477 1 29.1863106226 -11.1671652190 -1.5829090374
478 1 28.1835515852 -9.6630135117 0.2245909612
479 1 27.1804358258 -8.1587865360 2.0320909595
480 1 30.6894834797 -10.1643531461 -3.3904090347
481 1 29.6864646986 -8.6601804785 -1.5829090362
482 1 28.6831221794 -7.1559580404 0.2245909619
483 1 27.6794451988 -5.6517037098 2.0320909603
484 1 31.1893970812 -7.6574052648 -3.3904090338
485 1 30.1859490236 -6.1532162388 -1.5829090353
486 1 29.1822729377 -4.6490294975 0.2245909631
487 1 28.1784496741 -3.1448825196 2.0320909610
488 1 31.6890171099 -5.1505667401 -3.3904090330
489 1 30.6854849768 -3.6464674592 -1.5829090346
490 1 29.6819840094 -2.1424414716 0.2245909635
491 1 28.6787151658 -0.6385330067 2.0320909615
492 1 32.1891026444 -2.6439932218 -3.3904090317
493 1 31.1859895970 -1.1400695891 -1.5829090336
494 1 30.1832095305 0.3637485938 0.2245909642
495 1 29.1808852940 1.8674666548 2.0320909621
496 1 32.6903039763 -0.1377118123 -3.3904090311
497 1 31.6878704480 1.3660701669 -1.5829090328
498 1 30.6857818759 2.8697998089 0.2245909649
499 1 29.6839654154 4.3735147404 2.0320909630
500 1 33.1925179262 2.3684531246 -3.3904090300
501 1 32.1905062578 3.8722170159 -1.5829090319
502 1 31.1886412777 5.3759876838 0.2245909655
503 1 30.1868365049 6.8797834585 2.0320909641
504 1 33.6950437950 4.8746998941 -3.3904090294
505 1 32.6930986322 6.3785186288 -1.5829090315
506 1 31.6911742793 7.8823632688 0.2245909664
507 1 30.6892339042 9.3862399886 2.0320909648
508 1 34.1973734073 7.3810936686 -3.3904090287
509 1 33.1953298029 8.8849815432 -1.5829090311
510 1 32.1932456254 10.3889033441 0.2245909669
511 1 31.1910836188 11.8928669761 2.0320909654
512 1 34.6993184642 9.8876310274 -3.3904090287
513 1 33.6970810526 11.3915941297 -1.5829090306
514 1 32.6947323415 12.8956006795 0.2245909679
515 1 35.2007643205 12.3943013400 -3.3904090278
516 1 30.1887941846 -12.6712440108 0.2245909640
517 1 29.1863106226 -11.1671652189 2.0320909627
518 1 31.6922198690 -11.6684680483 -1.5829090338
519 1 30.6894834798 -10.1643531462 0.2245909648
520 1 29.6864646987 -8.6601804783 2.0320909635
521 1 33.1955230198 -10.6657010360 -3.3904090312
522 1 32.1925869088 -9.1615719203 -1.5829090327
523 1 31.1893970814 -7.6574052648 0.2245909661
524 1 30.1859490238 -6.1532162389 2.0320909648
525 1 33.6957146558 -8.1588380578 -3.3904090302
526 1 32.6924506702 -6.6547000591 -1.5829090314
527 1 31.6890171099 -5.1505667399 0.2245909671
528 1 30.6854849767 -3.6464674592 2.0320909654
529 1 34.1957005460 -5.6520674443 -3.3904090292
530 1 33.1923866994 -4.1480023430 -1.5829090305
531 1 32.1891026442 -2.6439932218 0.2245909681
532 1 31.1859895972 -1.1400695894 2.0320909663
533 1 34.6960618445 -3.1455027607 -3.3904090272
534 1 33.6930637933 -1.6415688295 -1.5829090287
535 1 32.6903039764 -0.1377118123 0.2245909692
536 1 31.6878704483 1.3660701670 2.0320909669
537 1 35.1972552593 -0.6391567750 -3.3904090258
538 1 34.1947560001 0.8646699269 -1.5829090279
539 1 33.1925179263 2.3684531245 0.2245909703
540 1 32.1905062576 3.8722170163 2.0320909679
541 1 35.6992191382 1.8670930337 -3.3904090249
542 1 34.6970633284 3.3708967455 -1.5829090268
543 1 33.6950437951 4.8746998943 0.2245909707
544 1 32.6930986324 6.3785186290 2.0320909684
545 1 36.2014775985 4.3733921465 -3.3904090244
546 1 35.1994099377 5.8772330509 -1.5829090265
547 1 34.1973734073 7.3810936687 0.2245909708
548 1 33.1953298030 8.8849815433 2.0320909689
549 1 36.7036227679 6.8798055955 -3.3904090240
550 1 35.7014871875 8.3837037891 -1.5829090264
551 1 34.6993184643 9.8876310274 0.2245909713
552 1 33.6970810521 11.3915941297 2.0320909696
553 1 37.2054564725 9.3863411860 -3.3904090239
554 1 36.2031575980 10.8903032504 -1.5829090258
555 1 35.2007643206 12.3943013400 0.2245909722
556 1 37.7068723309 11.8929882844 -3.3904090234
557 1 31.6922198688 -11.6684680482 2.0320909665
558 1 34.1982346277 -12.1697856169 -1.5829090295
559 1 33.1955230198 -10.6657010362 0.2245909688
560 1 32.1925869088 -9.1615719205 2.0320909675
561 1 35.7016454130 -11.1670545104 -3.3904090268
562 1 34.6987795429 -9.6629604255 -1.5829090288
563 1 33.6957146558 -8.1588380578 0.2245909698
564 1 32.6924506702 -6.6547000592 2.0320909686
565 1 36.2020622463 -8.6602585674 -3.3904090258
566 1 35.1989452316 -7.1561603666 -1.5829090277
567 1 34.1957005460 -5.6520674441 0.2245909713
568 1 33.1923866998 -4.1480023426 2.0320909696
569 1 36.7023338097 -6.1535396741 -3.3904090245
570 1 35.6991856929 -4.6494998678 -1.5829090263
571 1 34.6960618443 -3.1455027607 0.2245909726
572 1 33.6930637936 -1.6415688295 2.0320909712
573 1 37.2029032456 -3.6469811857 -3.3904090229
574 1 36.1999927516 -2.1430404286 -1.5829090245
575 1 35.1972552592 -0.6391567750 0.2245909737
576 1 34.1947560006 0.8646699270 2.0320909722
577 1 37.7040987105 -1.1405888865 -3.3904090216
578 1 36.7015593555 0.3632697888 -1.5829090234
579 1 35.6992191384 1.8670930335 0.2245909749
580 1 34.6970633281 3.3708967454 2.0320909728
581 1 38.2058844973 1.3657248940 -3.3904090204
582 1 37.2036212627 2.8695605403 -1.5829090223
583 1 36.2014775984 4.3733921467 0.2245909760
584 1 35.1994099375 5.8772330512 2.0320909736
585 1 38.7079300514 3.8720687192 -3.3904090199
586 1 37.7057586791 5.3759297920 -1.5829090215
587 1 36.7036227676 6.8798055955 0.2245909758
588 1 35.7014871873 8.3837037888 2.0320909738
589 1 39.2099135846 6.3785015551 -3.3904090193
590 1 38.2076976005 7.8824092591 -1.5829090214
591 1 37.2054564724 9.3863411860 0.2245909764
592 1 36.2031575980 10.8903032505 2.0320909741
593 1 39.7116494973 8.8850365951 -3.3904090189
594 1 38.7092999383 10.3889976647 -1.5829090213
595 1 37.7068723309 11.8929882845 0.2245909771
596 1 40.2130417559 11.3916644199 -3.3904090189
597 1 39.2104961141 12.8956755714 -1.5829090205
598 1 34.1982346279 -12.1697856167 2.0320909703
599 1 36.7043325287 -12.6711141544 -1.5829090252
600 1 35.7016454132 -11.1670545105 0.2245909730
601 1 34.6987795429 -9.6629604254 2.0320909711
602 1 38.2078318213 -11.6684117003 -3.3904090220
603 1 37.2050252311 -10.1643458037 -1.5829090243
604 1 36.2020622463 -8.6602585672 0.2245909740
605 1 35.1989452317 -7.1561603666 2.0320909722
606 1 38.7084309577 -9.1616687568 -3.3904090214
607 1 37.7054311457 -7.6576016935 -1.5829090229
608 1 36.7023338096 -6.1535396739 0.2245909754
609 1 35.6991856935 -4.6494998675 2.0320909738
610 1 39.2089267509 -6.6549897198 -3.3904090200
611 1 38.2059060356 -5.1509691612 -1.5829090215
612 1 37.2029032454 -3.6469811855 0.2245909770
613 1 36.1999927518 -2.1430404282 2.0320909753
614 1 39.7096566597 -4.1484362287 -3.3904090185
615 1 38.7068143309 -2.6444911172 -1.5829090201
616 1 37.7040987104 -1.1405888864 0.2245909784
617 1 36.7015593559 0.3632697887 2.0320909768
618 1 40.2108601312 -1.6420104627 -3.3904090177
619 1 39.2082960888 -0.1381285650 -1.5829090191
620 1 38.2058844970 1.3657248939 0.2245909792
621 1 37.2036212627 2.8695605399 2.0320909777
622 1 40.7125169476 0.8643518544 -3.3904090165
623 1 39.7101727102 2.3682129516 -1.5829090179
624 1 38.7079300513 3.8720687190 0.2245909805
625 1 37.7057586789 5.3759297925 2.0320909782
626 1 41.2143931662 3.3707330173 -3.3904090154
627 1 40.2121353433 4.8746118335 -1.5829090171
628 1 39.2099135846 6.3785015551 0.2245909806
629 1 38.2076976007 7.8824092590 2.0320909784
630 1 41.7162377682 5.8771839950 -3.3904090151
631 1 40.7139524513 7.3811004032 -1.5829090170
632 1 39.7116494973 8.8850365951 0.2245909807
633 1 38.7092999389 10.3889976643 2.0320909787
634 1 42.2178880961 8.3837196832 -3.3904090146
635 1 41.2154963907 9.8876800789 -1.5829090171
636 1 40.2130417557 11.3916644198 0.2245909811
637 1 39.2104961136 12.8956755719 2.0320909796