# LAMMPS data file Sigma = 13, inclination = 0.000000
#LAMMPS data file
3190 atoms
2 atom types
-100.1000000000 100.1000000000 xlo xhi
-13.0340632500 13.0340632500 ylo yhi
-3.6150000000 3.6150000000 zlo zhi
0.0 0.0 0.0 xy xz yz

Atoms # atomic

1 2 0.0000002814 6.9324423564 -1.8075000000
2 2 3.5091716401 -10.5479090711 -1.8075000000
3 2 1.5039314265 12.4463865837 -1.8075000000
4 2 3.5091716401 -10.5479090711 1.8075000000
5 2 -0.0000002814 -6.1089670552 -1.8075000000
6 2 3.5091719216 -4.0214096184 0.0000000000
7 2 1.5039308637 -0.5503212711 -1.8075000000
8 2 0.0000000000 0.4245598423 0.0000000000
9 2 1.0026206696 1.9472313632 -1.8075000000
10 2 3.5091722030 2.4967472612 -1.8075000000
11 2 0.5013104755 4.4420459292 -1.8075000000
12 2 1.5039311451 5.9631699780 0.0000000000
13 2 0.0000002814 6.9324423564 1.8075000000
14 2 2.5065518147 7.4856884296 -1.8075000000
15 2 1.0026209510 8.4515798798 0.0000000000
16 2 1.0026201068 -11.1474917487 1.8075000000
17 2 2.0052416206 9.9727770834 -1.8075000000
18 2 0.5013107569 10.9303532825 0.0000000000
19 2 1.5039314265 12.4463865837 1.8075000000
20 2 2.0052407764 -9.5919752887 3.6150000000
21 2 3.5091724844 9.0110954605 0.0000000000
22 2 3.0078622903 11.4984943627 0.0000000000
23 2 1.0026201068 -11.1474917487 -1.8075000000
24 2 0.0000005628 -12.6770797930 0.0000000000
25 2 0.5013099127 -8.6219741485 -1.8075000000
26 2 1.5039305823 -7.0826185974 0.0000000000
27 2 -0.0000002814 -6.1089670552 1.8075000000
28 2 2.5065512519 -5.5496527333 -1.8075000000
29 2 1.0026203882 -4.5775452193 0.0000000000
30 2 3.5091719216 -4.0214096184 3.6150000000
31 2 2.0052410578 -3.0495495423 -1.8075000000
32 2 0.5013101941 -2.0752167008 0.0000000000
33 2 1.5039308637 -0.5503212711 1.8075000000
34 2 0.0000000000 0.4245598423 3.6150000000
35 2 3.0078617274 -1.5240281801 0.0000000000
36 2 2.5065515333 0.9734106168 0.0000000000
37 2 1.0026206696 1.9472313632 1.8075000000
38 2 3.5091722030 2.4967472612 1.8075000000
39 1 4.0104823971 -0.0000008283 -1.8075000000
40 2 2.0052413392 3.4696434684 0.0000000000
41 2 0.5013104755 4.4420459292 1.8075000000
42 2 1.5039311451 5.9631699780 3.6150000000
43 1 4.5117925912 2.5164947783 -1.8075000000
44 2 3.0078620088 4.9925837139 -1.8075000000
45 2 2.5065518147 7.4856884296 1.8075000000
46 2 1.0026209510 8.4515798798 3.6150000000
47 1 5.0131027853 5.0343504552 -1.8075000000
48 1 4.0104821157 6.5170581864 0.0000000000
49 2 2.0052416206 9.9727770834 1.8075000000
50 2 0.5013107569 10.9303532825 3.6150000000
51 1 5.5144129794 7.5557330099 -1.8075000000
52 1 4.5117923098 9.0372037878 0.0000000000
53 2 3.5091724844 9.0110954605 3.6150000000
54 2 3.0078622903 11.4984943627 3.6150000000
55 1 6.0157231735 10.0850146569 -1.8075000000
56 1 5.0131025039 11.5665060349 0.0000000000
57 1 6.5170333676 12.6330595489 -1.8075000000
58 2 2.0052407764 -9.5919752887 0.0000000000
59 2 0.0000005628 -12.6770797930 3.6150000000
60 1 4.0104829599 13.0340077245 -1.8075000000
61 2 2.5065520961 -12.1016575635 0.0000000000
62 2 0.5013099127 -8.6219741485 1.8075000000
63 2 1.5039305823 -7.0826185974 3.6150000000
64 1 4.5117931540 -10.5102505614 -1.8075000000
65 2 3.0078614460 -8.0497406571 -1.8075000000
66 2 2.5065512519 -5.5496527333 1.8075000000
67 2 1.0026203882 -4.5775452193 3.6150000000
68 1 5.0131033481 -7.9947771427 -1.8075000000
69 1 4.0104826785 -6.5170598326 0.0000000000
70 2 2.0052410578 -3.0495495423 1.8075000000
71 2 0.5013101941 -2.0752167008 3.6150000000
72 1 5.5144135422 -5.4810876417 -1.8075000000
73 1 4.5117928726 -4.0000135123 0.0000000000
74 2 3.0078617274 -1.5240281801 3.6150000000
75 2 2.5065515333 0.9734106168 3.6150000000
76 1 6.0157237363 -2.9674083882 -1.8075000000
77 1 5.0131030667 -1.4842009066 0.0000000000
78 1 4.0104823971 -0.0000008283 1.8075000000
79 2 2.0052413392 3.4696434684 3.6150000000
80 1 6.5170339304 -0.4527731263 -1.8075000000
81 1 5.5144132608 1.0318727001 0.0000000000
82 1 4.5117925912 2.5164947783 1.8075000000
83 2 3.0078620088 4.9925837139 1.8075000000
84 1 7.0183441245 2.0637529984 -1.8075000000
85 1 6.0157234549 3.5495262201 0.0000000000
86 1 5.0131027853 5.0343504552 1.8075000000
87 1 4.0104821157 6.5170581864 3.6150000000
88 1 7.5196543186 4.5834580668 -1.8075000000
89 1 6.5170336490 6.0705228767 0.0000000000
90 1 5.5144129794 7.5557330099 1.8075000000
91 1 4.5117923098 9.0372037878 3.6150000000
92 1 8.0209645127 7.1084362406 -1.8075000000
93 1 7.0183438431 8.5979251321 0.0000000000
94 1 6.0157231735 10.0850146569 1.8075000000
95 1 5.0131025039 11.5665060349 3.6150000000
96 1 8.5222747068 9.6422791531 -1.8075000000
97 1 7.5196540372 11.1377570819 0.0000000000
98 1 6.5170333676 12.6330595489 1.8075000000
99 1 9.0235849009 12.1905575614 -1.8075000000
100 1 4.0104829599 13.0340077245 1.8075000000
101 2 2.5065520961 -12.1016575635 3.6150000000
102 1 5.5144138236 -11.9663855434 0.0000000000
103 1 4.5117931540 -10.5102505614 1.8075000000
104 2 3.0078614460 -8.0497406571 1.8075000000
105 1 7.0183446873 -10.9259169717 -1.8075000000
106 1 6.0157240177 -9.4653816807 0.0000000000
107 1 5.0131033481 -7.9947771427 1.8075000000
108 1 4.0104826785 -6.5170598326 3.6150000000
109 1 7.5196548814 -8.4308829652 -1.8075000000
110 1 6.5170342118 -6.9585089854 0.0000000000
111 1 5.5144135422 -5.4810876417 1.8075000000
112 1 4.5117928726 -4.0000135123 3.6150000000
113 1 8.0209650755 -5.9273553704 -1.8075000000
114 1 7.0183444059 -4.4487451279 0.0000000000
115 1 6.0157237363 -2.9674083882 1.8075000000
116 1 5.0131030667 -1.4842009066 3.6150000000
117 1 8.5222752696 -3.4191558511 -1.8075000000
118 1 7.5196546000 -1.9366742770 0.0000000000
119 1 6.5170339304 -0.4527731263 1.8075000000
120 1 5.5144132608 1.0318727001 3.6150000000
121 1 9.0235854637 -0.9073798825 -1.8075000000
122 1 8.0209647941 0.5778958755 0.0000000000
123 1 7.0183441245 2.0637529984 1.8075000000
124 1 6.0157234549 3.5495262201 3.6150000000
125 1 9.5248956578 1.6079587734 -1.8075000000
126 1 8.5222749882 3.0956855714 0.0000000000
127 1 7.5196543186 4.5834580668 1.8075000000
128 1 6.5170336490 6.0705228767 3.6150000000
129 1 10.0262058520 4.1275361395 -1.8075000000
130 1 9.0235851823 5.6180366644 0.0000000000
131 1 8.0209645127 7.1084362406 1.8075000000
132 1 7.0183438431 8.5979251321 3.6150000000
133 1 10.5275160461 6.6526687093 -1.8075000000
134 1 9.5248953764 8.1471614843 0.0000000000
135 1 8.5222747068 9.6422791531 1.8075000000
136 1 7.5196540372 11.1377570819 3.6150000000
137 1 11.0288262402 9.1852477827 -1.8075000000
138 1 10.0262055705 10.6862376444 0.0000000000
139 1 9.0235849009 12.1905575614 1.8075000000
140 1 11.5301364343 11.7270729033 -1.8075000000
141 1 5.5144138236 -11.9663855434 3.6150000000
142 1 8.0209653569 -12.3759421312 0.0000000000
143 1 7.0183446873 -10.9259169717 1.8075000000
144 1 6.0157240177 -9.4653816807 3.6150000000
145 1 9.5248962207 -11.3588184530 -1.8075000000
146 1 8.5222755510 -9.8973531500 0.0000000000
147 1 7.5196548814 -8.4308829652 1.8075000000
148 1 6.5170342118 -6.9585089854 3.6150000000
149 1 10.0262064148 -8.8743113504 -1.8075000000
150 1 9.0235857451 -7.4025789463 0.0000000000
151 1 8.0209650755 -5.9273553704 1.8075000000
152 1 7.0183444059 -4.4487451279 3.6150000000
153 1 10.5275166089 -6.3779414224 -1.8075000000
154 1 9.5248959393 -4.8996765842 0.0000000000
155 1 8.5222752696 -3.4191558511 1.8075000000
156 1 7.5196546000 -1.9366742770 3.6150000000
157 1 11.0288268030 -3.8743238477 -1.8075000000
158 1 10.0262061334 -2.3915663529 0.0000000000
159 1 9.0235854637 -0.9073798825 1.8075000000
160 1 8.0209647941 0.5778958755 3.6150000000
161 1 11.5301369971 -1.3654422450 -1.8075000000
162 1 10.5275163275 0.1207984612 0.0000000000
163 1 9.5248956578 1.6079587734 1.8075000000
164 1 8.5222749882 3.0956855714 3.6150000000
165 1 12.0314471912 1.1480318480 -1.8075000000
166 1 11.0288265216 2.6374286764 0.0000000000
167 1 10.0262058520 4.1275361395 1.8075000000
168 1 9.0235851823 5.6180366644 3.6150000000
169 1 12.5327573853 3.6661679387 -1.8075000000
170 1 11.5301367157 5.1589663865 0.0000000000
171 1 10.5275160461 6.6526687093 1.8075000000
172 1 9.5248953764 8.1471614843 3.6150000000
173 1 13.0340675794 6.1894860382 -1.8075000000
174 1 12.0314469098 7.6865024463 0.0000000000
175 1 11.0288262402 9.1852477827 1.8075000000
176 1 10.0262055705 10.6862376444 3.6150000000
177 1 13.5353777735 8.7186432773 -1.8075000000
178 1 12.5327571039 10.2211716378 0.0000000000
179 1 11.5301364343 11.7270729033 1.8075000000
180 1 14.0366879676 11.2538396615 -1.8075000000
181 1 13.0340672980 12.7630876248 0.0000000000
182 1 8.0209653569 -12.3759421312 3.6150000000
183 1 10.5275168903 -12.8187920695 0.0000000000
184 1 9.5248962207 -11.3588184530 1.8075000000
185 1 8.5222755510 -9.8973531500 3.6150000000
186 1 12.0314477540 -11.8119839381 -1.8075000000
187 1 11.0288270844 -10.3434481363 0.0000000000
188 1 10.0262064148 -8.8743113504 1.8075000000
189 1 9.0235857451 -7.4025789463 3.6150000000
190 1 12.5327579481 -9.3287663959 -1.8075000000
191 1 11.5301372785 -7.8540748766 0.0000000000
192 1 10.5275166089 -6.3779414224 1.8075000000
193 1 9.5248959393 -4.8996765842 3.6150000000
194 1 13.0340681422 -6.8353762610 -1.8075000000
195 1 12.0314474726 -5.3555350070 0.0000000000
196 1 11.0288268030 -3.8743238477 1.8075000000
197 1 10.0262061334 -2.3915663529 3.6150000000
198 1 13.5353783363 -4.3345564766 -1.8075000000
199 1 12.5327576667 -2.8505672814 0.0000000000
200 1 11.5301369971 -1.3654422450 1.8075000000
201 1 10.5275163275 0.1207984612 3.6150000000
202 1 14.0366885304 -1.8279805271 -1.8075000000
203 1 13.0340678608 -0.3404629448 0.0000000000
204 1 12.0314471912 1.1480318480 1.8075000000
205 1 11.0288265216 2.6374286764 3.6150000000
206 1 14.5379987245 0.6835186018 -1.8075000000
207 1 13.5353780549 2.1743442787 0.0000000000
208 1 12.5327573853 3.6661679387 1.8075000000
209 1 11.5301367157 5.1589663865 3.6150000000
210 1 15.0393089186 3.1996488744 -1.8075000000
211 1 14.0366882490 4.6939246265 0.0000000000
212 1 13.0340675794 6.1894860382 1.8075000000
213 1 12.0314469098 7.6865024463 3.6150000000
214 1 15.5406191127 5.7204010645 -1.8075000000
215 1 14.5379984431 7.2185665089 0.0000000000
216 1 13.5353777735 8.7186432773 1.8075000000
217 1 12.5327571039 10.2211716378 3.6150000000
218 1 16.0419293068 8.2457655987 -1.8075000000
219 1 15.0393086372 9.7483910833 0.0000000000
220 1 14.0366879676 11.2538396615 1.8075000000
221 1 13.0340672980 12.7630876248 3.6150000000
222 1 16.5432395009 10.7753704002 -1.8075000000
223 1 15.5406188313 12.2827991919 0.0000000000
224 1 10.5275168903 -12.8187920695 3.6150000000
225 1 12.0314477540 -11.8119839381 1.8075000000
226 1 11.0288270844 -10.3434481363 3.6150000000
227 1 14.5379992873 -12.2788534922 -1.8075000000
228 1 13.5353786177 -10.8032247430 0.0000000000
229 1 12.5327579481 -9.3287663959 1.8075000000
230 1 11.5301372785 -7.8540748766 3.6150000000
231 1 15.0393094814 -9.7932477730 -1.8075000000
232 1 14.0366888118 -8.3143545241 0.0000000000
233 1 13.0340681422 -6.8353762610 1.8075000000
234 1 12.0314474726 -5.3555350070 3.6150000000
235 1 15.5406196755 -7.3000457330 -1.8075000000
236 1 14.5379990059 -5.8175894543 0.0000000000
237 1 13.5353783363 -4.3345564766 1.8075000000
238 1 12.5327576667 -2.8505672814 3.6150000000
239 1 16.0419298697 -4.8004062295 -1.8075000000
240 1 15.0393092000 -3.3145689373 0.0000000000
241 1 14.0366885304 -1.8279805271 1.8075000000
242 1 13.0340678608 -0.3404629448 3.6150000000
243 1 16.5432400638 -2.2953535160 -1.8075000000
244 1 15.5406193941 -0.8063450649 0.0000000000
245 1 14.5379987245 0.6835186018 1.8075000000
246 1 13.5353780549 2.1743442787 3.6150000000
247 1 17.0445502579 0.2144220987 -1.8075000000
248 1 16.0419295882 1.7065261669 0.0000000000
249 1 15.0393089186 3.1996488744 1.8075000000
250 1 14.0366882490 4.6939246265 3.6150000000
251 1 17.5458604520 2.7285106944 -1.8075000000
252 1 16.5432397824 4.2237997287 0.0000000000
253 1 15.5406191127 5.7204010645 1.8075000000
254 1 14.5379984431 7.2185665089 3.6150000000
255 1 18.0471706461 5.2466445411 -1.8075000000
256 1 17.0445499765 6.7453282056 0.0000000000
257 1 16.0419293068 8.2457655987 1.8075000000
258 1 15.0393086372 9.7483910833 3.6150000000
259 1 18.5484808402 7.7685198352 -1.8075000000
260 1 17.5458601706 9.2708085569 0.0000000000
261 1 16.5432395009 10.7753704002 1.8075000000
262 1 15.5406188313 12.2827991919 3.6150000000
263 1 19.0497910343 10.2936037749 -1.8075000000
264 1 18.0471703647 11.7995194728 0.0000000000
265 1 19.5511012284 12.8209962806 -1.8075000000
266 1 14.5379992873 -12.2788534922 1.8075000000
267 1 13.5353786177 -10.8032247430 3.6150000000
268 1 17.0445508207 -12.7541756875 -1.8075000000
269 1 16.0419301511 -11.2729337100 0.0000000000
270 1 15.0393094814 -9.7932477730 1.8075000000
271 1 14.0366888118 -8.3143545241 3.6150000000
272 1 17.5458610148 -10.2654101982 -1.8075000000
273 1 16.5432403452 -8.7824568874 0.0000000000
274 1 15.5406196755 -7.3000457330 1.8075000000
275 1 14.5379990059 -5.8175894543 3.6150000000
276 1 18.0471712089 -7.7711133443 -1.8075000000
277 1 17.0445505393 -6.2857919073 0.0000000000
278 1 16.0419298697 -4.8004062295 1.8075000000
279 1 15.0393092000 -3.3145689373 3.6150000000
280 1 18.5484814030 -5.2716078034 -1.8075000000
281 1 17.5458607334 -3.7836899750 0.0000000000
282 1 16.5432400638 -2.2953535160 1.8075000000
283 1 15.5406193941 -0.8063450649 3.6150000000
284 1 19.0497915971 -2.7674008951 -1.8075000000
285 1 18.0471709275 -1.2768222178 0.0000000000
286 1 17.0445502579 0.2144220987 1.8075000000
287 1 16.0419295882 1.7065261669 3.6150000000
288 1 19.5511017912 -0.2589626360 -1.8075000000
289 1 18.5484811216 1.2343233230 0.0000000000
290 1 17.5458604520 2.7285106944 1.8075000000
291 1 16.5432397824 4.2237997287 3.6150000000
292 1 20.0524119853 2.2533219274 -1.8075000000
293 1 19.0497913157 3.7493948950 0.0000000000
294 1 18.0471706461 5.2466445411 1.8075000000
295 1 17.0445499765 6.7453282056 3.6150000000
296 1 20.5537221794 4.7691072106 -1.8075000000
297 1 19.5511015098 6.2680651777 0.0000000000
298 1 18.5484808402 7.7685198352 1.8075000000
299 1 17.5458601706 9.2708085569 3.6150000000
300 1 21.0550323735 7.2879993769 -1.8075000000
301 1 20.0524117039 8.7898939118 0.0000000000
302 1 19.0497910343 10.2936037749 1.8075000000
303 1 18.0471703647 11.7995194728 3.6150000000
304 1 21.5563425676 9.8094647849 -1.8075000000
305 1 20.5537218980 11.3142090994 0.0000000000
306 1 19.5511012284 12.8209962806 1.8075000000
307 1 22.0576527617 12.3327791492 -1.8075000000
308 1 17.0445508207 -12.7541756875 1.8075000000
309 1 16.0419301511 -11.2729337100 3.6150000000
310 1 18.5484816844 -11.7494352560 0.0000000000
311 1 17.5458610148 -10.2654101982 1.8075000000
312 1 16.5432403452 -8.7824568874 3.6150000000
313 1 20.0524125481 -10.7432062274 -1.8075000000
314 1 19.0497918785 -9.2567893578 0.0000000000
315 1 18.0471712089 -7.7711133443 1.8075000000
316 1 17.0445505393 -6.2857919073 3.6150000000
317 1 20.5537227422 -8.2474129111 -1.8075000000
318 1 19.5511020726 -6.7594094025 0.0000000000
319 1 18.5484814030 -5.2716078034 1.8075000000
320 1 17.5458607334 -3.7836899750 3.6150000000
321 1 21.0550329363 -5.7474997610 -1.8075000000
322 1 20.0524122667 -4.2575426760 0.0000000000
323 1 19.0497915971 -2.7674008951 1.8075000000
324 1 18.0471709275 -1.2768222178 3.6150000000
325 1 21.5563431304 -3.2436630737 -1.8075000000
326 1 20.5537224608 -1.7515528508 0.0000000000
327 1 19.5511017912 -0.2589626360 1.8075000000
328 1 18.5484811216 1.2343233230 3.6150000000
329 1 22.0576533245 -0.7361859835 -1.8075000000
330 1 21.0550326549 0.7581992784 0.0000000000
331 1 20.0524119853 2.2533219274 1.8075000000
332 1 19.0497913157 3.7493948950 3.6150000000
333 1 22.5589635186 1.7746245642 -1.8075000000
334 1 21.5563428490 3.2713721830 0.0000000000
335 1 20.5537221794 4.7691072106 1.8075000000
336 1 19.5511015098 6.2680651777 3.6150000000
337 1 23.0602737128 4.2884385922 -1.8075000000
338 1 22.0576530431 5.7876026879 0.0000000000
339 1 21.0550323735 7.2879993769 1.8075000000
340 1 20.0524117039 8.7898939118 3.6150000000
341 1 23.5615839069 6.8048713910 -1.8075000000
342 1 22.5589632372 8.3064443005 0.0000000000
343 1 21.5563425676 9.8094647849 1.8075000000
344 1 20.5537218980 11.3142090994 3.6150000000
345 1 24.0628941010 9.3234476672 -1.8075000000
346 1 23.0602734314 10.8273191182 0.0000000000
347 1 22.0576527617 12.3327791492 1.8075000000
348 1 24.5642042951 11.8435881447 -1.8075000000
349 1 18.5484816844 -11.7494352560 3.6150000000
350 1 21.0550332177 -12.2306665768 0.0000000000
351 1 20.0524125481 -10.7432062274 1.8075000000
352 1 19.0497918785 -9.2567893578 3.6150000000
353 1 22.5589640815 -11.2251589305 -1.8075000000
354 1 21.5563434118 -9.7359148527 0.0000000000
355 1 20.5537227422 -8.2474129111 1.8075000000
356 1 19.5511020726 -6.7594094025 3.6150000000
357 1 23.0602742756 -8.7278691349 -1.8075000000
358 1 22.0576536059 -7.2375288219 0.0000000000
359 1 21.0550329363 -5.7474997610 1.8075000000
360 1 20.0524122667 -4.2575426760 3.6150000000
361 1 23.5615844697 -6.2273271871 -1.8075000000
362 1 22.5589638001 -4.7355151600 0.0000000000
363 1 21.5563431304 -3.2436630737 1.8075000000
364 1 20.5537224608 -1.7515528508 3.6150000000
365 1 24.0628946638 -3.7235678897 -1.8075000000
366 1 23.0602739942 -2.2300410496 0.0000000000
367 1 22.0576533245 -0.7361859835 1.8075000000
368 1 21.0550326549 0.7581992784 3.6150000000
369 1 24.5642048579 -1.2167457378 -1.8075000000
370 1 23.5615841883 0.2786514250 0.0000000000
371 1 22.5589635186 1.7746245642 1.8075000000
372 1 21.5563428490 3.2713721830 3.6150000000
373 1 25.0655150520 1.2929147136 -1.8075000000
374 1 24.0628943824 2.7902776221 0.0000000000
375 1 23.0602737128 4.2884385922 1.8075000000
376 1 22.0576530431 5.7876026879 3.6150000000
377 1 25.5668252461 3.8051354513 -1.8075000000
378 1 24.5642045765 5.3045058135 0.0000000000
379 1 23.5615839069 6.8048713910 1.8075000000
380 1 22.5589632372 8.3064443005 3.6150000000
381 1 26.0681354402 6.3195813491 -1.8075000000
382 1 25.0655147706 7.8209374060 0.0000000000
383 1 24.0628941010 9.3234476672 1.8075000000
384 1 23.0602734314 10.8273191182 3.6150000000
385 1 26.5694456343 8.8358523877 -1.8075000000
386 1 25.5668249647 10.3390933332 0.0000000000
387 1 24.5642042951 11.8435881447 1.8075000000
388 1 27.0707558284 11.3534865709 -1.8075000000
389 1 26.0681351588 12.8584239500 0.0000000000
390 1 21.0550332177 -12.2306665768 3.6150000000
391 1 23.5615847511 -12.7153182628 0.0000000000
392 1 22.5589640815 -11.2251589305 1.8075000000
393 1 21.5563434118 -9.7359148527 3.6150000000
394 1 25.0655156148 -11.7102459713 -1.8075000000
395 1 24.0628949452 -10.2187234709 0.0000000000
396 1 23.0602742756 -8.7278691349 1.8075000000
397 1 22.0576536059 -7.2375288219 3.6150000000
398 1 25.5668258089 -9.2116109211 -1.8075000000
399 1 24.5642051393 -7.7193010402 0.0000000000
400 1 23.5615844697 -6.2273271871 1.8075000000
401 1 22.5589638001 -4.7355151600 3.6150000000
402 1 26.0681360030 -6.7103908431 -1.8075000000
403 1 25.0655153334 -5.2169590053 0.0000000000
404 1 24.0628946638 -3.7235678897 1.8075000000
405 1 23.0602739942 -2.2300410496 3.6150000000
406 1 26.5694461971 -4.2065462670 -1.8075000000
407 1 25.5668255275 -2.7117536669 0.0000000000
408 1 24.5642048579 -1.2167457378 1.8075000000
409 1 23.5615841883 0.2786514250 3.6150000000
410 1 27.0707563912 -1.7001521260 -1.8075000000
411 1 26.0681357216 -0.2038375761 0.0000000000
412 1 25.0655150520 1.2929147136 1.8075000000
413 1 24.0628943824 2.7902776221 3.6150000000
414 1 27.5720665853 0.8086351670 -1.8075000000
415 1 26.5694459157 2.3065697357 0.0000000000
416 1 25.5668252461 3.8051354513 1.8075000000
417 1 24.5642045765 5.3045058135 3.6150000000
418 1 28.0733767794 3.3195960093 -1.8075000000
419 1 27.0707561098 4.8191914188 0.0000000000
420 1 26.0681354402 6.3195813491 1.8075000000
421 1 25.0655147706 7.8209374060 3.6150000000
422 1 28.5746869735 5.8324552359 -1.8075000000
423 1 27.5720663039 7.3336934903 0.0000000000
424 1 26.5694456343 8.8358523877 1.8075000000
425 1 25.5668249647 10.3390933332 3.6150000000
426 1 29.0759971676 8.3468868264 -1.8075000000
427 1 28.0733764980 9.8496871053 0.0000000000
428 1 27.0707558284 11.3534865709 1.8075000000
429 1 26.0681351588 12.8584239500 3.6150000000
430 1 29.5773073618 10.8625233024 -1.8075000000
431 1 28.5746866921 12.3667418805 0.0000000000
432 1 23.5615847511 -12.7153182628 3.6150000000
433 1 25.0655156148 -11.7102459713 1.8075000000
434 1 24.0628949452 -10.2187234709 3.6150000000
435 1 27.5720671481 -12.1977544175 -1.8075000000
436 1 26.5694464785 -10.7043954285 0.0000000000
437 1 25.5668258089 -9.2116109211 1.8075000000
438 1 24.5642051393 -7.7193010402 3.6150000000
439 1 28.0733773422 -9.6979640838 -1.8075000000
440 1 27.0707566726 -8.2040171569 0.0000000000
441 1 26.0681360030 -6.7103908431 1.8075000000
442 1 25.0655153334 -5.2169590053 3.6150000000
443 1 28.5746875363 -7.1960977208 -1.8075000000
444 1 27.5720668667 -5.7012814887 0.0000000000
445 1 26.5694461971 -4.2065462670 1.8075000000
446 1 25.5668255275 -2.7117536669 3.6150000000
447 1 29.0759977305 -4.6920873397 -1.8075000000
448 1 28.0733770608 -3.1961876244 0.0000000000
449 1 27.0707563912 -1.7001521260 1.8075000000
450 1 26.0681357216 -0.2038375761 3.6150000000
451 1 29.5773079246 -2.1859618843 -1.8075000000
452 1 28.5746872549 -0.6888270820 0.0000000000
453 1 27.5720665853 0.8086351670 1.8075000000
454 1 26.5694459157 2.3065697357 3.6150000000
455 1 30.0786181187 0.3221728906 -1.8075000000
456 1 29.0759974491 1.8206378853 0.0000000000
457 1 28.0733767794 3.3195960093 1.8075000000
458 1 27.0707561098 4.8191914188 3.6150000000
459 1 30.5799283128 2.8321495600 -1.8075000000
460 1 29.5773076432 4.3319871528 0.0000000000
461 1 28.5746869735 5.8324552359 1.8075000000
462 1 27.5720663039 7.3336934903 3.6150000000
463 1 31.0812385069 5.3437495685 -1.8075000000
464 1 30.0786178373 6.8449506789 0.0000000000
465 1 29.0759971676 8.3468868264 1.8075000000
466 1 28.0733764980 9.8496871053 3.6150000000
467 1 31.5825487010 7.8567122931 -1.8075000000
468 1 30.5799280314 9.3592170525 0.0000000000
469 1 29.5773073618 10.8625233024 1.8075000000
470 1 28.5746866921 12.3667418805 3.6150000000
471 1 32.0838588951 10.3707461517 -1.8075000000
472 1 31.0812382255 11.8744470322 0.0000000000
473 1 32.5851690892 12.8855437972 -1.8075000000
474 1 27.5720671481 -12.1977544175 1.8075000000
475 1 26.5694464785 -10.7043954285 3.6150000000
476 1 30.0786186815 -12.6871754684 -1.8075000000
477 1 29.0759980119 -11.1923278874 0.0000000000
478 1 28.0733773422 -9.6979640838 1.8075000000
479 1 27.0707566726 -8.2040171569 3.6150000000
480 1 30.5799288756 -10.1864131046 -1.8075000000
481 1 29.5773082060 -8.6911109052 0.0000000000
482 1 28.5746875363 -7.1960977208 1.8075000000
483 1 27.5720668667 -5.7012814887 3.6150000000
484 1 31.0812390697 -7.6839647295 -1.8075000000
485 1 30.0786184001 -6.1879773037 0.0000000000
486 1 29.0759977305 -4.6920873397 1.8075000000
487 1 28.0733770608 -3.1961876244 3.6150000000
488 1 31.5825492638 -5.1797561242 -1.8075000000
489 1 30.5799285942 -3.6828997823 0.0000000000
490 1 29.5773079246 -2.1859618843 1.8075000000
491 1 28.5746872549 -0.6888270820 3.6150000000
492 1 32.0838594579 -2.6737910989 -1.8075000000
493 1 31.0812387883 -1.1759305140 0.0000000000
494 1 30.0786181187 0.3221728906 1.8075000000
495 1 29.0759974491 1.8206378853 3.6150000000
496 1 32.5851696520 -0.1661397595 -1.8075000000
497 1 31.5825489824 1.3328133928 0.0000000000
498 1 30.5799283128 2.8321495600 1.8075000000
499 1 29.5773076432 4.3319871528 3.6150000000
500 1 33.0864798461 2.3430726952 -1.8075000000
501 1 32.0838591765 3.8431615780 0.0000000000
502 1 31.0812385069 5.3437495685 1.8075000000
503 1 30.0786178373 6.8449506789 3.6150000000
504 1 33.5877900402 4.8536758983 -1.8075000000
505 1 32.5851693706 6.3549001862 0.0000000000
506 1 31.5825487010 7.8567122931 1.8075000000
507 1 30.5799280314 9.3592170525 3.6150000000
508 1 34.0891002343 7.3654638853 -1.8075000000
509 1 33.0864795647 8.8677819396 0.0000000000
510 1 32.0838588951 10.3707461517 1.8075000000
511 1 31.0812382255 11.8744470322 3.6150000000
512 1 34.5904104284 9.8782056914 -1.8075000000
513 1 33.5877897588 11.3815384631 0.0000000000
514 1 32.5851690892 12.8855437972 1.8075000000
515 1 35.0917206225 12.3916577685 -1.8075000000
516 1 30.0786186815 -12.6871754684 1.8075000000
517 1 29.0759980119 -11.1923278874 3.6150000000
518 1 31.5825495452 -11.6820727409 0.0000000000
519 1 30.5799288756 -10.1864131046 1.8075000000
520 1 29.5773082060 -8.6911109052 3.6150000000
521 1 33.0864804089 -10.6765628688 -1.8075000000
522 1 32.0838597393 -9.1801372016 0.0000000000
523 1 31.0812390697 -7.6839647295 1.8075000000
524 1 30.0786184001 -6.1879773037 3.6150000000
525 1 33.5877906030 -8.1736050359 -1.8075000000
526 1 32.5851699334 -6.6766302405 0.0000000000
527 1 31.5825492638 -5.1797561242 1.8075000000
528 1 30.5799285942 -3.6828997823 3.6150000000
529 1 34.0891007971 -5.6691923499 -1.8075000000
530 1 33.0864801275 -4.1715144150 0.0000000000
531 1 32.0838594579 -2.6737910989 1.8075000000
532 1 31.0812387883 -1.1759305140 3.6150000000
533 1 34.5904109912 -3.1633157659 -1.8075000000
534 1 33.5877903216 -1.6648173998 0.0000000000
535 1 32.5851696520 -0.1661397595 1.8075000000
536 1 31.5825489824 1.3328133928 3.6150000000
537 1 35.0917211853 -0.6560210407 -1.8075000000
538 1 34.0891005157 0.8433773621 0.0000000000
539 1 33.0864798461 2.3430726952 1.8075000000
540 1 32.0838591765 3.8431615780 3.6150000000
541 1 35.5930313795 1.8525991168 -1.8075000000
542 1 34.5904107098 3.3529399390 0.0000000000
543 1 33.5877900402 4.8536758983 1.8075000000
544 1 32.5851693706 6.3549001862 3.6150000000
545 1 36.0943415736 4.3624132207 -1.8075000000
546 1 35.0917209039 5.8637029461 0.0000000000
547 1 34.0891002343 7.3654638853 1.8075000000
548 1 33.0864795647 8.8677819396 3.6150000000
549 1 36.5956517677 6.8732595153 -1.8075000000
550 1 35.5930310980 8.3754710050 0.0000000000
551 1 34.5904104284 9.8782056914 1.8075000000
552 1 33.5877897588 11.3815384631 3.6150000000
553 1 37.0969619618 9.3849551696 -1.8075000000
554 1 36.0943412922 10.8880313053 0.0000000000
555 1 35.0917206225 12.3916577685 1.8075000000
556 1 37.5982721559 11.8973063204 -1.8075000000
557 1 31.5825495452 -11.6820727409 3.6150000000
558 1 34.0891010785 -12.1732916023 0.0000000000
559 1 33.0864804089 -10.6765628688 1.8075000000
560 1 32.0838597393 -9.1801372016 3.6150000000
561 1 35.5930319423 -11.1681079848 -1.8075000000
562 1 34.5904112726 -9.6707471893 0.0000000000
563 1 33.5877906030 -8.1736050359 1.8075000000
564 1 32.5851699334 -6.6766302405 3.6150000000
565 1 36.0943421364 -8.6647105190 -1.8075000000
566 1 35.0917214667 -7.1669029315 0.0000000000
567 1 34.0891007971 -5.6691923499 1.8075000000
568 1 33.0864801275 -4.1715144150 3.6150000000
569 1 36.5956523305 -6.1601016347 -1.8075000000
570 1 35.5930316609 -4.6617195220 0.0000000000
571 1 34.5904109912 -3.1633157659 1.8075000000
572 1 33.5877903216 -1.6648173998 3.6150000000
573 1 37.0969625246 -3.6542664039 -1.8075000000
574 1 36.0943418550 -2.1552097694 0.0000000000
575 1 35.0917211853 -0.6560210407 1.8075000000
576 1 34.0891005157 0.8433773621 3.6150000000
577 1 37.5982727187 -1.1472342245 -1.8075000000
578 1 36.5956520491 0.3525672619 0.0000000000
579 1 35.5930313795 1.8525991168 1.8075000000
580 1 34.5904107098 3.3529399390 3.6150000000
581 1 38.0995829128 1.3609265267 -1.8075000000
582 1 37.0969622432 2.8615131705 0.0000000000
583 1 36.0943415736 4.3624132207 1.8075000000
584 1 35.0917209039 5.8637029461 3.6150000000
585 1 38.6008931069 3.8701148135 -1.8075000000
586 1 37.5982724373 5.3714977121 0.0000000000
587 1 36.5956517677 6.8732595153 1.8075000000
588 1 35.5930310980 8.3754710050 3.6150000000
589 1 39.1022033010 6.3802039305 -1.8075000000
590 1 38.0995826314 7.8823668619 0.0000000000
591 1 37.0969619618 9.3849551696 1.8075000000
592 1 36.0943412922 10.8880313053 3.6150000000
593 1 39.6035134951 8.8910490771 -1.8075000000
594 1 38.6008928255 10.3939515249 0.0000000000
595 1 37.5982721559 11.8973063204 1.8075000000
596 1 40.1048236892 11.4024953912 -1.8075000000
597 1 39.1022030196 12.9060767251 0.0000000000
598 1 34.0891010785 -12.1732916023 3.6150000000
599 1 36.5956526119 -12.6657246743 0.0000000000
600 1 35.5930319423 -11.1681079848 1.8075000000
601 1 34.5904112726 -9.6707471893 3.6150000000
602 1 38.0995834756 -11.6608098716 -1.8075000000
603 1 37.0969628060 -10.1626664173 0.0000000000
604 1 36.0943421364 -8.6647105190 1.8075000000
605 1 35.0917214667 -7.1669029315 3.6150000000
606 1 38.6008936697 -9.1570354922 -1.8075000000
607 1 37.5982730001 -7.6585235200 0.0000000000
608 1 36.5956523305 -6.1601016347 1.8075000000
609 1 35.5930316609 -4.6617195220 3.6150000000
610 1 39.1022038638 -6.6522446988 -1.8075000000
611 1 38.0995831942 -5.1532587070 0.0000000000
612 1 37.0969625246 -3.6542664039 1.8075000000
613 1 36.0943418550 -2.1552097694 3.6150000000
614 1 39.6035140579 -4.1464205118 -1.8075000000
615 1 38.6008933883 -2.6468759870 0.0000000000
616 1 37.5982727187 -1.1472342245 1.8075000000
617 1 36.5956520491 0.3525672619 3.6150000000
618 1 40.1048242520 -1.6395814406 -1.8075000000
619 1 39.1022035824 -0.1394170383 0.0000000000
620 1 38.0995829128 1.3609265267 1.8075000000
621 1 37.0969622432 2.8615131705 3.6150000000
622 1 40.6061344461 0.8682221060 -1.8075000000
623 1 39.6035137765 2.3690437863 0.0000000000
624 1 38.6008931069 3.8701148135 1.8075000000
625 1 37.5982724373 5.3714977121 3.6150000000
626 1 41.1074446402 3.3769125465 -1.8075000000
627 1 40.1048239706 4.8784053427 0.0000000000
628 1 39.1022033010 6.3802039305 1.8075000000
629 1 38.0995826314 7.8823668619 3.6150000000
630 1 41.6087548343 5.8863906346 -1.8075000000
631 1 40.6061341647 7.3885462256 0.0000000000
632 1 39.6035134951 8.8910490771 1.8075000000
633 1 38.6008928255 10.3939515249 3.6150000000
634 1 42.1100650284 8.3965415103 -1.8075000000
635 1 41.1074443588 9.8993317726 0.0000000000
636 1 40.1048236892 11.4024953912 1.8075000000
637 1 39.1022030196 12.9060767251 3.6150000000
638 1 42.6113752226 10.9072410646 -1.8075000000
639 1 41.6087545529 12.4106212934 0.0000000000