# LAMMPS data file Sigma = 13, inclination = 0.000000
#LAMMPS data file
3190 atoms
2 atom types
-100.1000000000 100.1000000000 xlo xhi
-13.0340632500 13.0340632500 ylo yhi
-3.6150000000 3.6150000000 zlo zhi
0.0 0.0 0.0 xy xz yz

Atoms # atomic

1 1 -0.0000002814 6.5170339304 -1.8075000000
2 1 0.5013099127 9.0235854637 -1.8075000000
3 1 1.0026201068 11.5301369971 -1.8075000000
4 1 -0.0000005628 13.0340678608 0.0000000000
5 1 0.0000002814 -6.5170339304 -1.8075000000
6 1 0.5013104755 -4.0104823971 -1.8075000000
7 1 1.0026206696 -1.5039308637 -1.8075000000
8 1 0.0000000000 0.0000000000 0.0000000000
9 1 1.5039308637 1.0026206696 -1.8075000000
10 1 0.5013101941 2.5065515333 0.0000000000
11 1 2.0052410578 3.5091722030 -1.8075000000
12 1 1.0026203882 5.0131030667 0.0000000000
13 1 -0.0000002814 6.5170339304 1.8075000000
14 1 2.5065512519 6.0157237363 -1.8075000000
15 1 1.5039305823 7.5196546000 0.0000000000
16 1 0.5013099127 9.0235854637 1.8075000000
17 1 3.0078614460 8.5222752696 -1.8075000000
18 1 2.0052407764 10.0262061334 0.0000000000
19 1 1.0026201068 11.5301369971 1.8075000000
20 1 -0.0000005628 13.0340678608 3.6150000000
21 1 3.5091716401 11.0288268030 -1.8075000000
22 1 2.5065509705 12.5327576667 0.0000000000
23 1 1.5039314265 -12.0314471912 -1.8075000000
24 1 0.5013107569 -10.5275163275 0.0000000000
25 1 2.0052416206 -9.5248956578 -1.8075000000
26 1 1.0026209510 -8.0209647941 0.0000000000
27 1 0.0000002814 -6.5170339304 1.8075000000
28 1 2.5065518147 -7.0183441245 -1.8075000000
29 1 1.5039311451 -5.5144132608 0.0000000000
30 1 0.5013104755 -4.0104823971 1.8075000000
31 1 3.0078620088 -4.5117925912 -1.8075000000
32 1 2.0052413392 -3.0078617274 0.0000000000
33 1 1.0026206696 -1.5039308637 1.8075000000
34 1 0.0000000000 0.0000000000 3.6150000000
35 1 3.5091722030 -2.0052410578 -1.8075000000
36 1 2.5065515333 -0.5013101941 0.0000000000
37 1 1.5039308637 1.0026206696 1.8075000000
38 1 0.5013101941 2.5065515333 3.6150000000
39 1 4.0104823971 0.5013104755 -1.8075000000
40 1 3.0078617274 2.0052413392 0.0000000000
41 1 2.0052410578 3.5091722030 1.8075000000
42 1 1.0026203882 5.0131030667 3.6150000000
43 1 4.5117925912 3.0078620088 -1.8075000000
44 1 3.5091719216 4.5117928726 0.0000000000
45 1 2.5065512519 6.0157237363 1.8075000000
46 1 1.5039305823 7.5196546000 3.6150000000
47 1 5.0131027853 5.5144135422 -1.8075000000
48 1 4.0104821157 7.0183444059 0.0000000000
49 1 3.0078614460 8.5222752696 1.8075000000
50 1 2.0052407764 10.0262061334 3.6150000000
51 1 5.5144129794 8.0209650755 -1.8075000000
52 1 4.5117923098 9.5248959393 0.0000000000
53 1 3.5091716401 11.0288268030 1.8075000000
54 1 2.5065509705 12.5327576667 3.6150000000
55 1 6.0157231735 10.5275166089 -1.8075000000
56 1 5.0131025039 12.0314474726 0.0000000000
57 1 6.5170333676 13.0340681422 -1.8075000000
58 1 1.5039314265 -12.0314471912 1.8075000000
59 1 0.5013107569 -10.5275163275 3.6150000000
60 1 4.0104829599 -12.5327573853 -1.8075000000
61 1 3.0078622903 -11.0288265216 0.0000000000
62 1 2.0052416206 -9.5248956578 1.8075000000
63 1 1.0026209510 -8.0209647941 3.6150000000
64 1 4.5117931540 -10.0262058520 -1.8075000000
65 1 3.5091724844 -8.5222749882 0.0000000000
66 1 2.5065518147 -7.0183441245 1.8075000000
67 1 1.5039311451 -5.5144132608 3.6150000000
68 1 5.0131033481 -7.5196543186 -1.8075000000
69 1 4.0104826785 -6.0157234549 0.0000000000
70 1 3.0078620088 -4.5117925912 1.8075000000
71 1 2.0052413392 -3.0078617274 3.6150000000
72 1 5.5144135422 -5.0131027853 -1.8075000000
73 1 4.5117928726 -3.5091719216 0.0000000000
74 1 3.5091722030 -2.0052410578 1.8075000000
75 1 2.5065515333 -0.5013101941 3.6150000000
76 1 6.0157237363 -2.5065512519 -1.8075000000
77 1 5.0131030667 -1.0026203882 0.0000000000
78 1 4.0104823971 0.5013104755 1.8075000000
79 1 3.0078617274 2.0052413392 3.6150000000
80 1 6.5170339304 0.0000002814 -1.8075000000
81 1 5.5144132608 1.5039311451 0.0000000000
82 1 4.5117925912 3.0078620088 1.8075000000
83 1 3.5091719216 4.5117928726 3.6150000000
84 1 7.0183441245 2.5065518147 -1.8075000000
85 1 6.0157234549 4.0104826785 0.0000000000
86 1 5.0131027853 5.5144135422 1.8075000000
87 1 4.0104821157 7.0183444059 3.6150000000
88 1 7.5196543186 5.0131033481 -1.8075000000
89 1 6.5170336490 6.5170342118 0.0000000000
90 1 5.5144129794 8.0209650755 1.8075000000
91 1 4.5117923098 9.5248959393 3.6150000000
92 1 8.0209645127 7.5196548814 -1.8075000000
93 1 7.0183438431 9.0235857451 0.0000000000
94 1 6.0157231735 10.5275166089 1.8075000000
95 1 5.0131025039 12.0314474726 3.6150000000
96 1 8.5222747068 10.0262064148 -1.8075000000
97 1 7.5196540372 11.5301372785 0.0000000000
98 1 6.5170333676 13.0340681422 1.8075000000
99 1 9.0235849009 12.5327579481 -1.8075000000
100 1 4.0104829599 -12.5327573853 1.8075000000
101 1 3.0078622903 -11.0288265216 3.6150000000
102 1 5.5144138236 -11.5301367157 0.0000000000
103 1 4.5117931540 -10.0262058520 1.8075000000
104 1 3.5091724844 -8.5222749882 3.6150000000
105 1 7.0183446873 -10.5275160461 -1.8075000000
106 1 6.0157240177 -9.0235851823 0.0000000000
107 1 5.0131033481 -7.5196543186 1.8075000000
108 1 4.0104826785 -6.0157234549 3.6150000000
109 1 7.5196548814 -8.0209645127 -1.8075000000
110 1 6.5170342118 -6.5170336490 0.0000000000
111 1 5.5144135422 -5.0131027853 1.8075000000
112 1 4.5117928726 -3.5091719216 3.6150000000
113 1 8.0209650755 -5.5144129794 -1.8075000000
114 1 7.0183444059 -4.0104821157 0.0000000000
115 1 6.0157237363 -2.5065512519 1.8075000000
116 1 5.0131030667 -1.0026203882 3.6150000000
117 1 8.5222752696 -3.0078614460 -1.8075000000
118 1 7.5196546000 -1.5039305823 0.0000000000
119 1 6.5170339304 0.0000002814 1.8075000000
120 1 5.5144132608 1.5039311451 3.6150000000
121 1 9.0235854637 -0.5013099127 -1.8075000000
122 1 8.0209647941 1.0026209510 0.0000000000
123 1 7.0183441245 2.5065518147 1.8075000000
124 1 6.0157234549 4.0104826785 3.6150000000
125 1 9.5248956578 2.0052416206 -1.8075000000
126 1 8.5222749882 3.5091724844 0.0000000000
127 1 7.5196543186 5.0131033481 1.8075000000
128 1 6.5170336490 6.5170342118 3.6150000000
129 1 10.0262058520 4.5117931540 -1.8075000000
130 1 9.0235851823 6.0157240177 0.0000000000
131 1 8.0209645127 7.5196548814 1.8075000000
132 1 7.0183438431 9.0235857451 3.6150000000
133 1 10.5275160461 7.0183446873 -1.8075000000
134 1 9.5248953764 8.5222755510 0.0000000000
135 1 8.5222747068 10.0262064148 1.8075000000
136 1 7.5196540372 11.5301372785 3.6150000000
137 1 11.0288262402 9.5248962207 -1.8075000000
138 1 10.0262055705 11.0288270844 0.0000000000
139 1 9.0235849009 12.5327579481 1.8075000000
140 1 11.5301364343 12.0314477540 -1.8075000000
141 1 5.5144138236 -11.5301367157 3.6150000000
142 1 8.0209653569 -12.0314469098 0.0000000000
143 1 7.0183446873 -10.5275160461 1.8075000000
144 1 6.0157240177 -9.0235851823 3.6150000000
145 1 9.5248962207 -11.0288262402 -1.8075000000
146 1 8.5222755510 -9.5248953764 0.0000000000
147 1 7.5196548814 -8.0209645127 1.8075000000
148 1 6.5170342118 -6.5170336490 3.6150000000
149 1 10.0262064148 -8.5222747068 -1.8075000000
150 1 9.0235857451 -7.0183438431 0.0000000000
151 1 8.0209650755 -5.5144129794 1.8075000000
152 1 7.0183444059 -4.0104821157 3.6150000000
153 1 10.5275166089 -6.0157231735 -1.8075000000
154 1 9.5248959393 -4.5117923098 0.0000000000
155 1 8.5222752696 -3.0078614460 1.8075000000
156 1 7.5196546000 -1.5039305823 3.6150000000
157 1 11.0288268030 -3.5091716401 -1.8075000000
158 1 10.0262061334 -2.0052407764 0.0000000000
159 1 9.0235854637 -0.5013099127 1.8075000000
160 1 8.0209647941 1.0026209510 3.6150000000
161 1 11.5301369971 -1.0026201068 -1.8075000000
162 1 10.5275163275 0.5013107569 0.0000000000
163 1 9.5248956578 2.0052416206 1.8075000000
164 1 8.5222749882 3.5091724844 3.6150000000
165 1 12.0314471912 1.5039314265 -1.8075000000
166 1 11.0288265216 3.0078622903 0.0000000000
167 1 10.0262058520 4.5117931540 1.8075000000
168 1 9.0235851823 6.0157240177 3.6150000000
169 1 12.5327573853 4.0104829599 -1.8075000000
170 1 11.5301367157 5.5144138236 0.0000000000
171 1 10.5275160461 7.0183446873 1.8075000000
172 1 9.5248953764 8.5222755510 3.6150000000
173 1 13.0340675794 6.5170344932 -1.8075000000
174 1 12.0314469098 8.0209653569 0.0000000000
175 1 11.0288262402 9.5248962207 1.8075000000
176 1 10.0262055705 11.0288270844 3.6150000000
177 1 13.5353777735 9.0235860265 -1.8075000000
178 1 12.5327571039 10.5275168903 0.0000000000
179 1 11.5301364343 12.0314477540 1.8075000000
180 1 14.0366879676 11.5301375599 -1.8075000000
181 1 13.0340672980 13.0340684236 0.0000000000
182 1 8.0209653569 -12.0314469098 3.6150000000
183 1 10.5275168903 -12.5327571039 0.0000000000
184 1 9.5248962207 -11.0288262402 1.8075000000
185 1 8.5222755510 -9.5248953764 3.6150000000
186 1 12.0314477540 -11.5301364343 -1.8075000000
187 1 11.0288270844 -10.0262055705 0.0000000000
188 1 10.0262064148 -8.5222747068 1.8075000000
189 1 9.0235857451 -7.0183438431 3.6150000000
190 1 12.5327579481 -9.0235849009 -1.8075000000
191 1 11.5301372785 -7.5196540372 0.0000000000
192 1 10.5275166089 -6.0157231735 1.8075000000
193 1 9.5248959393 -4.5117923098 3.6150000000
194 1 13.0340681422 -6.5170333676 -1.8075000000
195 1 12.0314474726 -5.0131025039 0.0000000000
196 1 11.0288268030 -3.5091716401 1.8075000000
197 1 10.0262061334 -2.0052407764 3.6150000000
198 1 13.5353783363 -4.0104818343 -1.8075000000
199 1 12.5327576667 -2.5065509705 0.0000000000
200 1 11.5301369971 -1.0026201068 1.8075000000
201 1 10.5275163275 0.5013107569 3.6150000000
202 1 14.0366885304 -1.5039303009 -1.8075000000
203 1 13.0340678608 0.0000005628 0.0000000000
204 1 12.0314471912 1.5039314265 1.8075000000
205 1 11.0288265216 3.0078622903 3.6150000000
206 1 14.5379987245 1.0026212324 -1.8075000000
207 1 13.5353780549 2.5065520961 0.0000000000
208 1 12.5327573853 4.0104829599 1.8075000000
209 1 11.5301367157 5.5144138236 3.6150000000
210 1 15.0393089186 3.5091727658 -1.8075000000
211 1 14.0366882490 5.0131036295 0.0000000000
212 1 13.0340675794 6.5170344932 1.8075000000
213 1 12.0314469098 8.0209653569 3.6150000000
214 1 15.5406191127 6.0157242991 -1.8075000000
215 1 14.5379984431 7.5196551628 0.0000000000
216 1 13.5353777735 9.0235860265 1.8075000000
217 1 12.5327571039 10.5275168903 3.6150000000
218 1 16.0419293068 8.5222758324 -1.8075000000
219 1 15.0393086372 10.0262066962 0.0000000000
220 1 14.0366879676 11.5301375599 1.8075000000
221 1 13.0340672980 13.0340684236 3.6150000000
222 1 16.5432395009 11.0288273658 -1.8075000000
223 1 15.5406188313 12.5327582295 0.0000000000
224 1 10.5275168903 -12.5327571039 3.6150000000
225 1 12.0314477540 -11.5301364343 1.8075000000
226 1 11.0288270844 -10.0262055705 3.6150000000
227 1 14.5379992873 -12.0314466284 -1.8075000000
228 1 13.5353786177 -10.5275157647 0.0000000000
229 1 12.5327579481 -9.0235849009 1.8075000000
230 1 11.5301372785 -7.5196540372 3.6150000000
231 1 15.0393094814 -9.5248950950 -1.8075000000
232 1 14.0366888118 -8.0209642313 0.0000000000
233 1 13.0340681422 -6.5170333676 1.8075000000
234 1 12.0314474726 -5.0131025039 3.6150000000
235 1 15.5406196755 -7.0183435617 -1.8075000000
236 1 14.5379990059 -5.5144126980 0.0000000000
237 1 13.5353783363 -4.0104818343 1.8075000000
238 1 12.5327576667 -2.5065509705 3.6150000000
239 1 16.0419298697 -4.5117920284 -1.8075000000
240 1 15.0393092000 -3.0078611646 0.0000000000
241 1 14.0366885304 -1.5039303009 1.8075000000
242 1 13.0340678608 0.0000005628 3.6150000000
243 1 16.5432400638 -2.0052404950 -1.8075000000
244 1 15.5406193941 -0.5013096313 0.0000000000
245 1 14.5379987245 1.0026212324 1.8075000000
246 1 13.5353780549 2.5065520961 3.6150000000
247 1 17.0445502579 0.5013110383 -1.8075000000
248 1 16.0419295882 2.0052419020 0.0000000000
249 1 15.0393089186 3.5091727658 1.8075000000
250 1 14.0366882490 5.0131036295 3.6150000000
251 1 17.5458604520 3.0078625717 -1.8075000000
252 1 16.5432397824 4.5117934354 0.0000000000
253 1 15.5406191127 6.0157242991 1.8075000000
254 1 14.5379984431 7.5196551628 3.6150000000
255 1 18.0471706461 5.5144141050 -1.8075000000
256 1 17.0445499765 7.0183449687 0.0000000000
257 1 16.0419293068 8.5222758324 1.8075000000
258 1 15.0393086372 10.0262066962 3.6150000000
259 1 18.5484808402 8.0209656383 -1.8075000000
260 1 17.5458601706 9.5248965021 0.0000000000
261 1 16.5432395009 11.0288273658 1.8075000000
262 1 15.5406188313 12.5327582295 3.6150000000
263 1 19.0497910343 10.5275171717 -1.8075000000
264 1 18.0471703647 12.0314480354 0.0000000000
265 1 19.5511012284 13.0340687050 -1.8075000000
266 1 14.5379992873 -12.0314466284 1.8075000000
267 1 13.5353786177 -10.5275157647 3.6150000000
268 1 17.0445508207 -12.5327568225 -1.8075000000
269 1 16.0419301511 -11.0288259588 0.0000000000
270 1 15.0393094814 -9.5248950950 1.8075000000
271 1 14.0366888118 -8.0209642313 3.6150000000
272 1 17.5458610148 -10.0262052891 -1.8075000000
273 1 16.5432403452 -8.5222744254 0.0000000000
274 1 15.5406196755 -7.0183435617 1.8075000000
275 1 14.5379990059 -5.5144126980 3.6150000000
276 1 18.0471712089 -7.5196537558 -1.8075000000
277 1 17.0445505393 -6.0157228921 0.0000000000
278 1 16.0419298697 -4.5117920284 1.8075000000
279 1 15.0393092000 -3.0078611646 3.6150000000
280 1 18.5484814030 -5.0131022225 -1.8075000000
281 1 17.5458607334 -3.5091713587 0.0000000000
282 1 16.5432400638 -2.0052404950 1.8075000000
283 1 15.5406193941 -0.5013096313 3.6150000000
284 1 19.0497915971 -2.5065506891 -1.8075000000
285 1 18.0471709275 -1.0026198254 0.0000000000
286 1 17.0445502579 0.5013110383 1.8075000000
287 1 16.0419295882 2.0052419020 3.6150000000
288 1 19.5511017912 0.0000008442 -1.8075000000
289 1 18.5484811216 1.5039317079 0.0000000000
290 1 17.5458604520 3.0078625717 1.8075000000
291 1 16.5432397824 4.5117934354 3.6150000000
292 1 20.0524119853 2.5065523776 -1.8075000000
293 1 19.0497913157 4.0104832413 0.0000000000
294 1 18.0471706461 5.5144141050 1.8075000000
295 1 17.0445499765 7.0183449687 3.6150000000
296 1 20.5537221794 5.0131039109 -1.8075000000
297 1 19.5511015098 6.5170347746 0.0000000000
298 1 18.5484808402 8.0209656383 1.8075000000
299 1 17.5458601706 9.5248965021 3.6150000000
300 1 21.0550323735 7.5196554442 -1.8075000000
301 1 20.0524117039 9.0235863080 0.0000000000
302 1 19.0497910343 10.5275171717 1.8075000000
303 1 18.0471703647 12.0314480354 3.6150000000
304 1 21.5563425676 10.0262069776 -1.8075000000
305 1 20.5537218980 11.5301378413 0.0000000000
306 1 19.5511012284 13.0340687050 1.8075000000
307 1 22.0576527617 12.5327585109 -1.8075000000
308 1 17.0445508207 -12.5327568225 1.8075000000
309 1 16.0419301511 -11.0288259588 3.6150000000
310 1 18.5484816844 -11.5301361529 0.0000000000
311 1 17.5458610148 -10.0262052891 1.8075000000
312 1 16.5432403452 -8.5222744254 3.6150000000
313 1 20.0524125481 -10.5275154833 -1.8075000000
314 1 19.0497918785 -9.0235846195 0.0000000000
315 1 18.0471712089 -7.5196537558 1.8075000000
316 1 17.0445505393 -6.0157228921 3.6150000000
317 1 20.5537227422 -8.0209639499 -1.8075000000
318 1 19.5511020726 -6.5170330862 0.0000000000
319 1 18.5484814030 -5.0131022225 1.8075000000
320 1 17.5458607334 -3.5091713587 3.6150000000
321 1 21.0550329363 -5.5144124166 -1.8075000000
322 1 20.0524122667 -4.0104815528 0.0000000000
323 1 19.0497915971 -2.5065506891 1.8075000000
324 1 18.0471709275 -1.0026198254 3.6150000000
325 1 21.5563431304 -3.0078608832 -1.8075000000
326 1 20.5537224608 -1.5039300195 0.0000000000
327 1 19.5511017912 0.0000008442 1.8075000000
328 1 18.5484811216 1.5039317079 3.6150000000
329 1 22.0576533245 -0.5013093499 -1.8075000000
330 1 21.0550326549 1.0026215138 0.0000000000
331 1 20.0524119853 2.5065523776 1.8075000000
332 1 19.0497913157 4.0104832413 3.6150000000
333 1 22.5589635186 2.0052421834 -1.8075000000
334 1 21.5563428490 3.5091730472 0.0000000000
335 1 20.5537221794 5.0131039109 1.8075000000
336 1 19.5511015098 6.5170347746 3.6150000000
337 1 23.0602737128 4.5117937168 -1.8075000000
338 1 22.0576530431 6.0157245805 0.0000000000
339 1 21.0550323735 7.5196554442 1.8075000000
340 1 20.0524117039 9.0235863080 3.6150000000
341 1 23.5615839069 7.0183452501 -1.8075000000
342 1 22.5589632372 8.5222761138 0.0000000000
343 1 21.5563425676 10.0262069776 1.8075000000
344 1 20.5537218980 11.5301378413 3.6150000000
345 1 24.0628941010 9.5248967835 -1.8075000000
346 1 23.0602734314 11.0288276472 0.0000000000
347 1 22.0576527617 12.5327585109 1.8075000000
348 1 24.5642042951 12.0314483168 -1.8075000000
349 1 18.5484816844 -11.5301361529 3.6150000000
350 1 21.0550332177 -12.0314463470 0.0000000000
351 1 20.0524125481 -10.5275154833 1.8075000000
352 1 19.0497918785 -9.0235846195 3.6150000000
353 1 22.5589640815 -11.0288256774 -1.8075000000
354 1 21.5563434118 -9.5248948136 0.0000000000
355 1 20.5537227422 -8.0209639499 1.8075000000
356 1 19.5511020726 -6.5170330862 3.6150000000
357 1 23.0602742756 -8.5222741440 -1.8075000000
358 1 22.0576536059 -7.0183432803 0.0000000000
359 1 21.0550329363 -5.5144124166 1.8075000000
360 1 20.0524122667 -4.0104815528 3.6150000000
361 1 23.5615844697 -6.0157226107 -1.8075000000
362 1 22.5589638001 -4.5117917470 0.0000000000
363 1 21.5563431304 -3.0078608832 1.8075000000
364 1 20.5537224608 -1.5039300195 3.6150000000
365 1 24.0628946638 -3.5091710773 -1.8075000000
366 1 23.0602739942 -2.0052402136 0.0000000000
367 1 22.0576533245 -0.5013093499 1.8075000000
368 1 21.0550326549 1.0026215138 3.6150000000
369 1 24.5642048579 -1.0026195440 -1.8075000000
370 1 23.5615841883 0.5013113197 0.0000000000
371 1 22.5589635186 2.0052421834 1.8075000000
372 1 21.5563428490 3.5091730472 3.6150000000
373 1 25.0655150520 1.5039319893 -1.8075000000
374 1 24.0628943824 3.0078628531 0.0000000000
375 1 23.0602737128 4.5117937168 1.8075000000
376 1 22.0576530431 6.0157245805 3.6150000000
377 1 25.5668252461 4.0104835227 -1.8075000000
378 1 24.5642045765 5.5144143864 0.0000000000
379 1 23.5615839069 7.0183452501 1.8075000000
380 1 22.5589632372 8.5222761138 3.6150000000
381 1 26.0681354402 6.5170350560 -1.8075000000
382 1 25.0655147706 8.0209659197 0.0000000000
383 1 24.0628941010 9.5248967835 1.8075000000
384 1 23.0602734314 11.0288276472 3.6150000000
385 1 26.5694456343 9.0235865894 -1.8075000000
386 1 25.5668249647 10.5275174531 0.0000000000
387 1 24.5642042951 12.0314483168 1.8075000000
388 1 27.0707558284 11.5301381227 -1.8075000000
389 1 26.0681351588 13.0340689864 0.0000000000
390 1 21.0550332177 -12.0314463470 3.6150000000
391 1 23.5615847511 -12.5327565411 0.0000000000
392 1 22.5589640815 -11.0288256774 1.8075000000
393 1 21.5563434118 -9.5248948136 3.6150000000
394 1 25.0655156148 -11.5301358715 -1.8075000000
395 1 24.0628949452 -10.0262050077 0.0000000000
396 1 23.0602742756 -8.5222741440 1.8075000000
397 1 22.0576536059 -7.0183432803 3.6150000000
398 1 25.5668258089 -9.0235843381 -1.8075000000
399 1 24.5642051393 -7.5196534744 0.0000000000
400 1 23.5615844697 -6.0157226107 1.8075000000
401 1 22.5589638001 -4.5117917470 3.6150000000
402 1 26.0681360030 -6.5170328048 -1.8075000000
403 1 25.0655153334 -5.0131019411 0.0000000000
404 1 24.0628946638 -3.5091710773 1.8075000000
405 1 23.0602739942 -2.0052402136 3.6150000000
406 1 26.5694461971 -4.0104812714 -1.8075000000
407 1 25.5668255275 -2.5065504077 0.0000000000
408 1 24.5642048579 -1.0026195440 1.8075000000
409 1 23.5615841883 0.5013113197 3.6150000000
410 1 27.0707563912 -1.5039297381 -1.8075000000
411 1 26.0681357216 0.0000011256 0.0000000000
412 1 25.0655150520 1.5039319893 1.8075000000
413 1 24.0628943824 3.0078628531 3.6150000000
414 1 27.5720665853 1.0026217952 -1.8075000000
415 1 26.5694459157 2.5065526590 0.0000000000
416 1 25.5668252461 4.0104835227 1.8075000000
417 1 24.5642045765 5.5144143864 3.6150000000
418 1 28.0733767794 3.5091733286 -1.8075000000
419 1 27.0707561098 5.0131041923 0.0000000000
420 1 26.0681354402 6.5170350560 1.8075000000
421 1 25.0655147706 8.0209659197 3.6150000000
422 1 28.5746869735 6.0157248619 -1.8075000000
423 1 27.5720663039 7.5196557256 0.0000000000
424 1 26.5694456343 9.0235865894 1.8075000000
425 1 25.5668249647 10.5275174531 3.6150000000
426 1 29.0759971676 8.5222763953 -1.8075000000
427 1 28.0733764980 10.0262072590 0.0000000000
428 1 27.0707558284 11.5301381227 1.8075000000
429 1 26.0681351588 13.0340689864 3.6150000000
430 1 29.5773073618 11.0288279286 -1.8075000000
431 1 28.5746866921 12.5327587923 0.0000000000
432 1 23.5615847511 -12.5327565411 3.6150000000
433 1 25.0655156148 -11.5301358715 1.8075000000
434 1 24.0628949452 -10.0262050077 3.6150000000
435 1 27.5720671481 -12.0314460656 -1.8075000000
436 1 26.5694464785 -10.5275152018 0.0000000000
437 1 25.5668258089 -9.0235843381 1.8075000000
438 1 24.5642051393 -7.5196534744 3.6150000000
439 1 28.0733773422 -9.5248945322 -1.8075000000
440 1 27.0707566726 -8.0209636685 0.0000000000
441 1 26.0681360030 -6.5170328048 1.8075000000
442 1 25.0655153334 -5.0131019411 3.6150000000
443 1 28.5746875363 -7.0183429989 -1.8075000000
444 1 27.5720668667 -5.5144121352 0.0000000000
445 1 26.5694461971 -4.0104812714 1.8075000000
446 1 25.5668255275 -2.5065504077 3.6150000000
447 1 29.0759977305 -4.5117914656 -1.8075000000
448 1 28.0733770608 -3.0078606018 0.0000000000
449 1 27.0707563912 -1.5039297381 1.8075000000
450 1 26.0681357216 0.0000011256 3.6150000000
451 1 29.5773079246 -2.0052399322 -1.8075000000
452 1 28.5746872549 -0.5013090685 0.0000000000
453 1 27.5720665853 1.0026217952 1.8075000000
454 1 26.5694459157 2.5065526590 3.6150000000
455 1 30.0786181187 0.5013116011 -1.8075000000
456 1 29.0759974491 2.0052424648 0.0000000000
457 1 28.0733767794 3.5091733286 1.8075000000
458 1 27.0707561098 5.0131041923 3.6150000000
459 1 30.5799283128 3.0078631345 -1.8075000000
460 1 29.5773076432 4.5117939982 0.0000000000
461 1 28.5746869735 6.0157248619 1.8075000000
462 1 27.5720663039 7.5196557256 3.6150000000
463 1 31.0812385069 5.5144146678 -1.8075000000
464 1 30.0786178373 7.0183455315 0.0000000000
465 1 29.0759971676 8.5222763953 1.8075000000
466 1 28.0733764980 10.0262072590 3.6150000000
467 1 31.5825487010 8.0209662011 -1.8075000000
468 1 30.5799280314 9.5248970649 0.0000000000
469 1 29.5773073618 11.0288279286 1.8075000000
470 1 28.5746866921 12.5327587923 3.6150000000
471 1 32.0838588951 10.5275177345 -1.8075000000
472 1 31.0812382255 12.0314485982 0.0000000000
473 1 32.5851690892 13.0340692678 -1.8075000000
474 1 27.5720671481 -12.0314460656 1.8075000000
475 1 26.5694464785 -10.5275152018 3.6150000000
476 1 30.0786186815 -12.5327562597 -1.8075000000
477 1 29.0759980119 -11.0288253960 0.0000000000
478 1 28.0733773422 -9.5248945322 1.8075000000
479 1 27.0707566726 -8.0209636685 3.6150000000
480 1 30.5799288756 -10.0262047263 -1.8075000000
481 1 29.5773082060 -8.5222738626 0.0000000000
482 1 28.5746875363 -7.0183429989 1.8075000000
483 1 27.5720668667 -5.5144121352 3.6150000000
484 1 31.0812390697 -7.5196531930 -1.8075000000
485 1 30.0786184001 -6.0157223293 0.0000000000
486 1 29.0759977305 -4.5117914656 1.8075000000
487 1 28.0733770608 -3.0078606018 3.6150000000
488 1 31.5825492638 -5.0131016597 -1.8075000000
489 1 30.5799285942 -3.5091707959 0.0000000000
490 1 29.5773079246 -2.0052399322 1.8075000000
491 1 28.5746872549 -0.5013090685 3.6150000000
492 1 32.0838594579 -2.5065501263 -1.8075000000
493 1 31.0812387883 -1.0026192626 0.0000000000
494 1 30.0786181187 0.5013116011 1.8075000000
495 1 29.0759974491 2.0052424648 3.6150000000
496 1 32.5851696520 0.0000014070 -1.8075000000
497 1 31.5825489824 1.5039322707 0.0000000000
498 1 30.5799283128 3.0078631345 1.8075000000
499 1 29.5773076432 4.5117939982 3.6150000000
500 1 33.0864798461 2.5065529404 -1.8075000000
501 1 32.0838591765 4.0104838041 0.0000000000
502 1 31.0812385069 5.5144146678 1.8075000000
503 1 30.0786178373 7.0183455315 3.6150000000
504 1 33.5877900402 5.0131044737 -1.8075000000
505 1 32.5851693706 6.5170353374 0.0000000000
506 1 31.5825487010 8.0209662011 1.8075000000
507 1 30.5799280314 9.5248970649 3.6150000000
508 1 34.0891002343 7.5196560070 -1.8075000000
509 1 33.0864795647 9.0235868708 0.0000000000
510 1 32.0838588951 10.5275177345 1.8075000000
511 1 31.0812382255 12.0314485982 3.6150000000
512 1 34.5904104284 10.0262075404 -1.8075000000
513 1 33.5877897588 11.5301384041 0.0000000000
514 1 32.5851690892 13.0340692678 1.8075000000
515 1 35.0917206225 12.5327590737 -1.8075000000
516 1 30.0786186815 -12.5327562597 1.8075000000
517 1 29.0759980119 -11.0288253960 3.6150000000
518 1 31.5825495452 -11.5301355901 0.0000000000
519 1 30.5799288756 -10.0262047263 1.8075000000
520 1 29.5773082060 -8.5222738626 3.6150000000
521 1 33.0864804089 -10.5275149204 -1.8075000000
522 1 32.0838597393 -9.0235840567 0.0000000000
523 1 31.0812390697 -7.5196531930 1.8075000000
524 1 30.0786184001 -6.0157223293 3.6150000000
525 1 33.5877906030 -8.0209633871 -1.8075000000
526 1 32.5851699334 -6.5170325234 0.0000000000
527 1 31.5825492638 -5.0131016597 1.8075000000
528 1 30.5799285942 -3.5091707959 3.6150000000
529 1 34.0891007971 -5.5144118538 -1.8075000000
530 1 33.0864801275 -4.0104809900 0.0000000000
531 1 32.0838594579 -2.5065501263 1.8075000000
532 1 31.0812387883 -1.0026192626 3.6150000000
533 1 34.5904109912 -3.0078603204 -1.8075000000
534 1 33.5877903216 -1.5039294567 0.0000000000
535 1 32.5851696520 0.0000014070 1.8075000000
536 1 31.5825489824 1.5039322707 3.6150000000
537 1 35.0917211853 -0.5013087871 -1.8075000000
538 1 34.0891005157 1.0026220766 0.0000000000
539 1 33.0864798461 2.5065529404 1.8075000000
540 1 32.0838591765 4.0104838041 3.6150000000
541 1 35.5930313795 2.0052427463 -1.8075000000
542 1 34.5904107098 3.5091736100 0.0000000000
543 1 33.5877900402 5.0131044737 1.8075000000
544 1 32.5851693706 6.5170353374 3.6150000000
545 1 36.0943415736 4.5117942796 -1.8075000000
546 1 35.0917209039 6.0157251433 0.0000000000
547 1 34.0891002343 7.5196560070 1.8075000000
548 1 33.0864795647 9.0235868708 3.6150000000
549 1 36.5956517677 7.0183458129 -1.8075000000
550 1 35.5930310980 8.5222766767 0.0000000000
551 1 34.5904104284 10.0262075404 1.8075000000
552 1 33.5877897588 11.5301384041 3.6150000000
553 1 37.0969619618 9.5248973463 -1.8075000000
554 1 36.0943412922 11.0288282100 0.0000000000
555 1 35.0917206225 12.5327590737 1.8075000000
556 1 37.5982721559 12.0314488796 -1.8075000000
557 1 31.5825495452 -11.5301355901 3.6150000000
558 1 34.0891010785 -12.0314457842 0.0000000000
559 1 33.0864804089 -10.5275149204 1.8075000000
560 1 32.0838597393 -9.0235840567 3.6150000000
561 1 35.5930319423 -11.0288251145 -1.8075000000
562 1 34.5904112726 -9.5248942508 0.0000000000
563 1 33.5877906030 -8.0209633871 1.8075000000
564 1 32.5851699334 -6.5170325234 3.6150000000
565 1 36.0943421364 -8.5222735812 -1.8075000000
566 1 35.0917214667 -7.0183427175 0.0000000000
567 1 34.0891007971 -5.5144118538 1.8075000000
568 1 33.0864801275 -4.0104809900 3.6150000000
569 1 36.5956523305 -6.0157220479 -1.8075000000
570 1 35.5930316609 -4.5117911841 0.0000000000
571 1 34.5904109912 -3.0078603204 1.8075000000
572 1 33.5877903216 -1.5039294567 3.6150000000
573 1 37.0969625246 -3.5091705145 -1.8075000000
574 1 36.0943418550 -2.0052396508 0.0000000000
575 1 35.0917211853 -0.5013087871 1.8075000000
576 1 34.0891005157 1.0026220766 3.6150000000
577 1 37.5982727187 -1.0026189812 -1.8075000000
578 1 36.5956520491 0.5013118825 0.0000000000
579 1 35.5930313795 2.0052427463 1.8075000000
580 1 34.5904107098 3.5091736100 3.6150000000
581 1 38.0995829128 1.5039325521 -1.8075000000
582 1 37.0969622432 3.0078634159 0.0000000000
583 1 36.0943415736 4.5117942796 1.8075000000
584 1 35.0917209039 6.0157251433 3.6150000000
585 1 38.6008931069 4.0104840855 -1.8075000000
586 1 37.5982724373 5.5144149492 0.0000000000
587 1 36.5956517677 7.0183458129 1.8075000000
588 1 35.5930310980 8.5222766767 3.6150000000
589 1 39.1022033010 6.5170356188 -1.8075000000
590 1 38.0995826314 8.0209664825 0.0000000000
591 1 37.0969619618 9.5248973463 1.8075000000
592 1 36.0943412922 11.0288282100 3.6150000000
593 1 39.6035134951 9.0235871522 -1.8075000000
594 1 38.6008928255 10.5275180159 0.0000000000
595 1 37.5982721559 12.0314488796 1.8075000000
596 1 40.1048236892 11.5301386855 -1.8075000000
597 1 39.1022030196 13.0340695492 0.0000000000
598 1 34.0891010785 -12.0314457842 3.6150000000
599 1 36.5956526119 -12.5327559783 0.0000000000
600 1 35.5930319423 -11.0288251145 1.8075000000
601 1 34.5904112726 -9.5248942508 3.6150000000
602 1 38.0995834756 -11.5301353087 -1.8075000000
603 1 37.0969628060 -10.0262044449 0.0000000000
604 1 36.0943421364 -8.5222735812 1.8075000000
605 1 35.0917214667 -7.0183427175 3.6150000000
606 1 38.6008936697 -9.0235837753 -1.8075000000
607 1 37.5982730001 -7.5196529116 0.0000000000
608 1 36.5956523305 -6.0157220479 1.8075000000
609 1 35.5930316609 -4.5117911841 3.6150000000
610 1 39.1022038638 -6.5170322420 -1.8075000000
611 1 38.0995831942 -5.0131013783 0.0000000000
612 1 37.0969625246 -3.5091705145 1.8075000000
613 1 36.0943418550 -2.0052396508 3.6150000000
614 1 39.6035140579 -4.0104807086 -1.8075000000
615 1 38.6008933883 -2.5065498449 0.0000000000
616 1 37.5982727187 -1.0026189812 1.8075000000
617 1 36.5956520491 0.5013118825 3.6150000000
618 1 40.1048242520 -1.5039291753 -1.8075000000
619 1 39.1022035824 0.0000016884 0.0000000000
620 1 38.0995829128 1.5039325521 1.8075000000
621 1 37.0969622432 3.0078634159 3.6150000000
622 1 40.6061344461 1.0026223580 -1.8075000000
623 1 39.6035137765 2.5065532218 0.0000000000
624 1 38.6008931069 4.0104840855 1.8075000000
625 1 37.5982724373 5.5144149492 3.6150000000
626 1 41.1074446402 3.5091738914 -1.8075000000
627 1 40.1048239706 5.0131047551 0.0000000000
628 1 39.1022033010 6.5170356188 1.8075000000
629 1 38.0995826314 8.0209664825 3.6150000000
630 1 41.6087548343 6.0157254247 -1.8075000000
631 1 40.6061341647 7.5196562884 0.0000000000
632 1 39.6035134951 9.0235871522 1.8075000000
633 1 38.6008928255 10.5275180159 3.6150000000
634 1 42.1100650284 8.5222769581 -1.8075000000
635 1 41.1074443588 10.0262078218 0.0000000000
636 1 40.1048236892 11.5301386855 1.8075000000
637 1 39.1022030196 13.0340695492 3.6150000000
638 1 42.6113752226 11.0288284914 -1.8075000000
639 1 41.6087545529 12.5327593551 0.0000000000