LAMMPS data file via write_data, version 29 Aug 2024, timestep = 1525, units = metal

3182 atoms
2 atom types

-100.1 100.1 xlo xhi
-13.03406325 13.03406325 ylo yhi
-3.615 3.615 zlo zhi
0 0 0 xy xz yz

Masses

1 63.55
2 63.55

Atoms # atomic

1 1 0.4930169735859238 8.99208357946239 -3.3814453172647867 0 0 0
2 1 0.751993896673909 11.537402488724867 -3.3818953385364225 0 0 0
3 1 0.2957315434693868 -4.111410106606813 -3.368516112121906 0 0 0
4 1 0.8718036791926522 -1.6148204375667454 -3.4029126717806197 0 0 0
5 1 1.4987286687171064 0.8947231479292945 -3.4007124851620496 0 0 0
6 1 0.4497870292477728 2.4062065356303677 -1.5738099984465632 0 0 0
7 1 1.9502391042010174 3.421488648597405 -3.3737909342450396 0 0 0
8 1 0.9665013778339357 4.905377969404951 -1.574032415178854 0 0 0
9 1 2.557700030063117 5.911689344820262 -3.380012038852582 0 0 0
10 1 1.577578616547754 7.439639234860179 -1.574829117370375 0 0 0
11 1 0.49280237591275977 8.98960531058132 0.2328874072748848 0 0 0
12 1 2.974592850685852 8.465020865704341 -3.3812547825113053 0 0 0
13 1 1.878047131534018 9.995640103312338 -1.5779718466444086 0 0 0
14 1 0.7733142389659946 11.503244496282294 0.2333954043037838 0 0 0
15 1 3.3246713030439707 10.997044705590463 -3.3818150280124355 0 0 0
16 1 2.2878313690147962 12.491549371497166 -1.5648567075162305 0 0 0
17 1 1.396838236239276 -12.09053200999273 -3.381249445360554 0 0 0
18 1 0.373003041848861 -10.57391845159556 -1.5318695471241448 0 0 0
19 1 1.7739605268608472 -9.569194607412497 -3.3804958529688185 0 0 0
20 1 -0.720403173449057 -9.054512431703097 0.23480678469978306 0 0 0
21 1 2.1883707406335873 -7.05925357759609 -3.385178689530385 0 0 0
22 1 1.197039187836836 -5.585869125812785 -1.5753310834249847 0 0 0
23 1 0.2957836995446712 -4.111957411973078 0.22010322583083394 0 0 0
24 1 2.7923664962114714 -4.592366780064895 -3.378578401255774 0 0 0
25 1 1.8339176142259248 -3.091495375693583 -1.5743650280770467 0 0 0
26 1 0.8719719810215167 -1.615002214789909 0.2544903659313796 0 0 0
27 1 3.387005651671444 -2.105182826974696 -3.387628775900098 0 0 0
28 1 2.481346197844573 -0.6187202179881481 -1.5743132101264692 0 0 0
29 1 1.4989032002157927 0.8945141170487538 0.25229200346189395 0 0 0
30 1 0.4951073567351756 2.440412054496422 2.0404286693695117 0 0 0
31 1 3.9653044394370482 0.39965760207187273 -3.38602995240797 0 0 0
32 1 2.9559313624701247 1.9048423962124215 -1.5741908311168702 0 0 0
33 1 1.9498536649054472 3.421612648340089 0.22534480921382047 0 0 0
34 1 0.9751301159202654 4.917266844674293 2.0405954742018966 0 0 0
35 1 4.4625315774168115 2.914486655415642 -3.378555026155755 0 0 0
36 1 3.483814691996784 4.4127036831990925 -1.5741838630307978 0 0 0
37 1 2.557762610379541 5.911854869044612 0.2315401684426237 0 0 0
38 1 1.579026149782777 7.442084070678968 2.0413208988891007 0 0 0
39 1 5.009348395230262 5.419610812609571 -3.3818981835178312 0 0 0
40 1 4.021135411237452 6.9364761568669255 -1.5742320955885225 0 0 0
41 1 2.9731849934005794 8.464814114340347 0.2327581171783424 0 0 0
42 1 1.8776509818092535 9.996272620585929 2.0444754075080263 0 0 0
43 1 5.459582548874195 7.954172030699267 -3.3819731932610066 0 0 0
44 1 4.400038342286194 9.475572387742028 -1.5755481808805254 0 0 0
45 1 3.3337508305046413 10.987015827686944 0.2333216797922759 0 0 0
46 1 2.2877324560296017 12.49217443530607 2.031340779562523 0 0 0
47 1 5.862819040072168 10.478596013140114 -3.3818685611463266 0 0 0
48 1 4.8312268563170875 11.98299943914539 -1.5720727447046974 0 0 0
49 1 6.346992922013044 12.979843614140735 -3.3817892503514977 0 0 0
50 1 1.2878710446067885 -12.089363026621823 0.2326182325367098 0 0 0
51 1 0.3738271264805775 -10.577309276168783 1.9981934043980927 0 0 0
52 1 3.84895220853123 -12.587017586981187 -3.381735033983225 0 0 0
53 1 2.839591673960186 -11.077204996885568 -1.5617450354725533 0 0 0
54 1 1.8061932264565002 -9.547019761543433 0.23208814427069857 0 0 0
55 1 0.6897486497484664 -8.04771979045754 2.0408166832439285 0 0 0
56 1 4.296982204660267 -10.072301084874129 -3.381207227403481 0 0 0
57 1 3.244906229330482 -8.555942172387457 -1.580724845291732 0 0 0
58 1 2.192059437355624 -7.052942351912442 0.2367632134209709 0 0 0
59 1 1.1716789752170342 -5.573802108429427 2.041871181651057 0 0 0
60 1 4.755331614203513 -7.566604760251214 -3.3825602221529474 0 0 0
61 1 3.7526546333567268 -6.076649744044804 -1.575118841173688 0 0 0
62 1 2.7926769765288526 -4.590907968810132 0.23010241120239153 0 0 0
63 1 1.845443035572643 -3.111126236940539 2.0409348658585973 0 0 0
64 1 5.312148540977475 -5.086152241143713 -3.3809383194012264 0 0 0
65 1 4.344897847977791 -3.5919968018911703 -1.5743156528712163 0 0 0
66 1 3.3870812476508974 -2.1047872866055943 0.23918901957126584 0 0 0
67 1 2.428135385671709 -0.6113672389068636 2.0408765961423168 0 0 0
68 1 5.890999140246365 -2.597475789740116 -3.3831230945586857 0 0 0
69 1 4.9398865847871605 -1.1040635470389297 -1.5742529594155432 0 0 0
70 1 3.965370886737645 0.39969464737639626 0.23758114552925974 0 0 0
71 1 2.9767572747327335 1.9149921987322767 2.040752380768367 0 0 0
72 1 6.44848144869222 -0.09503572193398924 -3.3826577954717423 0 0 0
73 1 5.456108173116078 1.4085445366017133 -1.5742244392534435 0 0 0
74 1 4.462435655131756 2.91452081053081 0.23010143359333185 0 0 0
75 1 3.481519169101091 4.412487803579355 2.040725291255672 0 0 0
76 1 6.962614713031172 2.415061202457821 -3.380776842446105 0 0 0
77 1 5.97879753865719 3.91705352404057 -1.5742151107422029 0 0 0
78 1 5.009372217998006 5.419662843405215 0.23343232367379932 0 0 0
79 1 4.020179869914912 6.935501979122593 2.0407564344000484 0 0 0
80 1 7.483755729932852 4.924954960990329 -3.3820267534448574 0 0 0
81 1 6.487124248505452 6.436066894640403 -1.5741357093472106 0 0 0
82 1 5.458683599709943 7.954677858748353 0.23349843490226027 0 0 0
83 1 4.399479669217442 9.475098343072036 2.042061779294663 0 0 0
84 1 7.949665616451497 7.449581500624811 -3.381774798788148 0 0 0
85 1 6.911197484991078 8.964599293132457 -1.5746424401795986 0 0 0
86 1 5.866143870608113 10.476066279117864 0.23338752637619645 0 0 0
87 1 4.831151451493483 11.982930736575126 2.038589964061286 0 0 0
88 1 8.384418605880327 9.969306686516164 -3.3817192749428138 0 0 0
89 1 7.356759639310965 11.476124099348214 -1.5738323643858758 0 0 0
90 1 6.340426554976716 12.98097917572519 0.2333165342910044 0 0 0
91 1 8.857820244840866 12.47640048988694 -3.3817380095498106 0 0 0
92 1 3.8216499035704885 -12.58379569911563 0.23324729272033687 0 0 0
93 1 2.839468732306912 -11.077048275313977 2.0282833964704365 0 0 0
94 1 5.3347265431560515 -11.580912907521736 -1.5715545733580802 0 0 0
95 1 4.311162065905052 -10.065911383266236 0.23276371995133477 0 0 0
96 1 3.2482426409085576 -8.558800079013702 2.0472056297255428 0 0 0
97 1 6.817684316367249 -10.57799905842227 -3.381571022563705 0 0 0
98 1 5.785471528076869 -9.069002168235025 -1.576529719419729 0 0 0
99 1 4.752025576342334 -7.567185034071704 0.23410752245418806 0 0 0
100 1 3.7444197596774984 -6.073804438165136 2.041704979814357 0 0 0
101 1 7.2958936224550115 -8.075070677960543 -3.3819733467918436 0 0 0
102 1 6.291707070235617 -6.5787770495129205 -1.57388311276814 0 0 0
103 1 5.31139288302235 -5.0867076963105875 0.2324872380476992 0 0 0
104 1 4.35074191549522 -3.597559882576064 2.0408547950414033 0 0 0
105 1 7.832711512225572 -5.586204856609224 -3.3815198933601347 0 0 0
106 1 6.8568551548935375 -4.0909188311973725 -1.5741010762634693 0 0 0
107 1 5.890847433997223 -2.5976547222218187 0.23466845527466537 0 0 0
108 1 4.925662316396227 -1.10127040936219 2.040806817436152 0 0 0
109 1 8.393749194094354 -3.093745927453968 -3.3820080872100706 0 0 0
110 1 7.424929462726183 -1.5965364718357247 -1.5742036258946224 0 0 0
111 1 6.448464044951336 -0.09510774644335207 0.23420426352027207 0 0 0
112 1 5.463524802787006 1.4108146169901374 2.0407712427564118 0 0 0
113 1 8.939674167331845 -0.5916755878892808 -3.381915941478663 0 0 0
114 1 7.952352927465455 0.9112419468258341 -1.5742216990153761 0 0 0
115 1 6.962583396031675 2.4150365858189264 0.23231852812881826 0 0 0
116 1 5.976564936139781 3.9163745656743156 2.040754640445913 0 0 0
117 1 9.4586425813266 1.916634902926214 -3.3814676884211763 0 0 0
118 1 8.470101859805851 3.42023015412118 -1.5742324030736254 0 0 0
119 1 7.483799028207329 4.9249193580094985 0.2335628912313934 0 0 0
120 1 6.486957876804894 6.435973339919011 2.040667542136004 0 0 0
121 1 9.968947616824238 4.427782588292567 -3.3818728782885703 0 0 0
122 1 8.967994140985795 5.9366394879879625 -1.5741773759542765 0 0 0
123 1 7.9492489490135085 7.449855587522494 0.23330621773473664 0 0 0
124 1 6.91126012375463 8.964682788283161 2.0411690039387795 0 0 0
125 1 10.443942521992795 6.946918347402866 -3.3817155447997886 0 0 0
126 1 9.417829686672604 8.458471942318257 -1.5743455798861385 0 0 0
127 1 8.385515239347072 9.968688200799393 0.2332483608702914 0 0 0
128 1 7.3568553775048 11.476188980632964 2.0403586890970775 0 0 0
129 1 10.898043159616734 9.463524653372781 -3.3817221148672636 0 0 0
130 1 9.874581532123514 10.97085948600691 -1.57415876396391 0 0 0
131 1 8.856110579403136 12.476728663276853 0.23326862502807338 0 0 0
132 1 11.370933869046269 11.972505700197887 -3.3817394576210136 0 0 0
133 1 5.334466541814777 -11.580745019124548 2.0380826530460885 0 0 0
134 1 7.842392697636683 -12.085505528683987 -1.5737453611286825 0 0 0
135 1 6.822447798664328 -10.576794182241473 0.23310702622829682 0 0 0
136 1 5.7866555390287715 -9.069864472754162 2.043062154537832 0 0 0
137 1 9.33620274502077 -11.083771684436956 -3.3816770510804877 0 0 0
138 1 8.31458922897798 -9.577885321746912 -1.5748490850579364 0 0 0
139 1 7.2938675135470845 -8.075614986770852 0.2335130362641993 0 0 0
140 1 6.2891011060114295 -6.577873472019691 2.0404234298644 0 0 0
141 1 9.82482942021322 -8.581436382632557 -3.38180294813818 0 0 0
142 1 8.821189208852914 -7.082382995431734 -1.5739742258991765 0 0 0
143 1 7.832688749343035 -5.58625401271323 0.23306196837613677 0 0 0
144 1 6.859258848782716 -4.0923441092044595 2.040647449939072 0 0 0
145 1 10.351347322399164 -6.087353441878658 -3.3816738355402047 0 0 0
146 1 9.36848464680888 -4.590206999753937 -1.5742166669547348 0 0 0
147 1 8.393796215652344 -3.0937071097169575 0.23355104604430987 0 0 0
148 1 7.42117763180525 -1.5956951556799908 2.0407473383510926 0 0 0
149 1 10.897861462224398 -3.5917054083357165 -3.381781110350943 0 0 0
150 1 9.919961503830308 -2.0927448020876938 -1.574238232935036 0 0 0
151 1 8.93969692921091 -0.5916572139437477 0.23345770416653655 0 0 0
152 1 7.954784057739687 0.9116671279055488 2.040764101533295 0 0 0
153 1 11.43536581732269 -1.0894407509372375 -3.3817698466334094 0 0 0
154 1 10.448142983340205 0.41315639353302025 -1.574233682764427 0 0 0
155 1 9.45864060325188 1.9166431983167485 0.23300737712418876 0 0 0
156 1 8.469036867286235 3.4199641968082606 2.0407709921759025 0 0 0
157 1 11.954307720059717 1.4180520955606237 -3.3816619543202697 0 0 0
158 1 10.962465687656078 2.9222619970820354 -1.5742372276933037 0 0 0
159 1 9.968984434626776 4.4277577600237965 0.23340968421464345 0 0 0
160 1 8.968106342235629 5.936706735726391 2.0407121151367544 0 0 0
161 1 12.460033158201824 3.929094463856332 -3.3817831209684077 0 0 0
162 1 11.457343999732842 5.436770598957656 -1.574211642196043 0 0 0
163 1 10.443780582979556 6.9470211985969375 0.23324984532300372 0 0 0
164 1 9.417870729251888 8.458508985720707 2.040877529933311 0 0 0
165 1 12.941216299785964 6.444887522154703 -3.3817170065521522 0 0 0
166 1 11.922454894181755 7.954349862972 -1.5742626520096947 0 0 0
167 1 10.898389721088009 9.463368808726573 0.23325507031077994 0 0 0
168 1 9.874600128182124 10.970854799095763 2.0406902180789532 0 0 0
169 1 13.407807369221487 8.95928231111863 -3.381730869188435 0 0 0
170 1 12.388237211235747 10.46645174878284 -1.5742175021943874 0 0 0
171 1 11.370455142421974 11.972600618855703 0.233272730383461 0 0 0
172 1 13.88364399699742 11.468713915326044 -3.3817362694239304 0 0 0
173 1 12.86864540647177 12.97424752653779 -1.574214526469213 0 0 0
174 1 7.842277303318127 -12.085383282708685 2.0402766758783204 0 0 0
175 1 10.354956633534798 -12.589835439255562 -1.5741429121318256 0 0 0
176 1 9.337656301349554 -11.083620003660236 0.2332112600475762 0 0 0
177 1 8.315009635600092 -9.578133267182404 2.0413844839596567 0 0 0
178 1 11.853271999641976 -11.588650982856953 -3.3817178711673694 0 0 0
179 1 10.837584495946217 -10.084072631286142 -1.574381603718675 0 0 0
180 1 9.824012334168955 -8.581616471083835 0.2333401226639976 0 0 0
181 1 8.820370658167661 -7.082079595271118 2.040512874334817 0 0 0
182 1 12.347397886029853 -9.086096074789358 -3.381753749928006 0 0 0
183 1 11.344379143269734 -7.585663925460297 -1.57413078261611 0 0 0
184 1 10.351472367149896 -6.087309920268249 0.2332129975242621 0 0 0
185 1 9.369347689337431 -4.590567926590218 2.0407577297192 0 0 0
186 1 12.867577654849839 -6.588719621705353 -3.3817160632416234 0 0 0
187 1 11.879528080990141 -5.090013714620303 -1.574245635169252 0 0 0
188 1 10.897885012386709 -3.591686198238987 0.23332110108384768 0 0 0
189 1 9.918917925925172 -2.092515277786024 2.0407793217662267 0 0 0
190 1 13.403173067322655 -4.090647358599215 -3.381739853992179 0 0 0
191 1 12.41943016467279 -2.5906545832863443 -1.5742352509219464 0 0 0
192 1 11.435367359944081 -1.089439428824372 0.23330947228118704 0 0 0
193 1 10.448906139206358 0.4132097483240518 2.040773556722049 0 0 0
194 1 13.933861800654327 -1.587949583109502 -3.3817405179885545 0 0 0
195 1 12.945010346166981 -0.08540784122824086 -1.5742305839197916 0 0 0
196 1 11.954302014088228 1.4180530531032485 0.23320043480206154 0 0 0
197 1 10.96205093081798 2.922182850044951 2.040775221181215 0 0 0
198 1 14.451033220231153 0.9191099533430354 -3.3817130163591114 0 0 0
199 1 13.456896293840217 2.4234847567559097 -1.5742336147314606 0 0 0
200 1 12.460050734985373 3.929080082964143 0.2333201114939477 0 0 0
201 1 11.457444844488762 5.436812428736809 2.040747602733109 0 0 0
202 1 14.954835429645371 3.429577619930958 -3.3817480743845545 0 0 0
203 1 13.951616150494274 4.936433613896396 -1.5742247827227516 0 0 0
204 1 12.94115780769566 6.444920043060245 0.23325263471403937 0 0 0
205 1 11.922454676154771 7.954353717256277 2.0407970888907125 0 0 0
206 1 15.440592052356067 5.943138430632482 -3.3817246592439427 0 0 0
207 1 14.426414111023718 7.4512197098494095 -1.5742401117578713 0 0 0
208 1 13.407915233248843 8.959240307102247 0.23326567936282075 0 0 0
209 1 12.388238637541022 10.466443834791866 2.0407514502321265 0 0 0
210 1 15.915686441629333 8.455882665082898 -3.381732809430584 0 0 0
211 1 14.89945537242609 9.962658631798819 -1.5742286686905145 0 0 0
212 1 13.883503554744607 11.468742114736132 0.2332710590782286 0 0 0
213 1 12.868620472811557 12.974259092210795 2.0407490721782096 0 0 0
214 1 16.395344894221623 10.965214811774837 -3.3817334899338687 0 0 0
215 1 15.381933251621078 12.470540993438762 -1.5742282489662058 0 0 0
216 1 10.354891837393694 -12.589803967001364 2.040676048428327 0 0 0
217 1 11.853708917924891 -11.588646746805374 0.2332526214710987 0 0 0
218 1 10.837725168168404 -10.084155352143824 2.040917111958352 0 0 0
219 1 14.368942626356315 -12.092778080469982 -3.3817277726282637 0 0 0
220 1 13.356774587773728 -10.58873100333193 -1.574268355888143 0 0 0
221 1 12.347115267478273 -9.086139197784737 0.23329021127735672 0 0 0
222 1 11.344120530375164 -7.585569712217335 2.0406683244301336 0 0 0
223 1 14.865921705295221 -9.589727180235334 -3.381737984566104 0 0 0
224 1 13.863269927945083 -8.08845647955295 -1.5741996082243175 0 0 0
225 1 12.867659491566371 -6.58869365836082 0.23325382391067914 0 0 0
226 1 11.879815996491132 -5.090109900828409 2.040784440935312 0 0 0
227 1 15.381712828298774 -7.090136307355645 -3.381727238334779 0 0 0
228 1 14.389954192202481 -5.590229820903087 -1.5742415757387103 0 0 0
229 1 13.403172147620467 -4.090645535153506 0.23327822670208093 0 0 0
230 1 12.41912339690208 -2.590592588672221 2.0407743210250646 0 0 0
231 1 15.909247112946488 -4.590222329424655 -3.3817327781731223 0 0 0
232 1 14.921295609334138 -3.0894681940244038 -1.574231368754198 0 0 0
233 1 13.933859439768199 -1.5879513107453889 0.23327882818621262 0 0 0
234 1 12.945248103442708 -0.0854081184385116 2.040769121303645 0 0 0
235 1 16.434302355466656 -2.0870056702972484 -3.3817338816662486 0 0 0
236 1 15.44338907887608 -0.5843717162923614 -1.57423036659418 0 0 0
237 1 14.451030279679742 0.9191109025124629 0.23325077478704456 0 0 0
238 1 13.45675003722421 2.4234654347489144 2.0407711650684095 0 0 0
239 1 16.949235354739244 0.41979680739805403 -3.3817264074338205 0 0 0
240 1 15.95342011093392 1.9241556643084632 -1.5742323252279737 0 0 0
241 1 14.95484335062288 3.4295722756106013 0.23328504954340465 0 0 0
242 1 13.951668263736735 4.936449875791846 2.0407612469933833 0 0 0
243 1 17.452232367872853 2.929587075396812 -3.3817365558673353 0 0 0
244 1 16.448973667800658 4.435811138202423 -1.5742295572965255 0 0 0
245 1 15.440572169936047 5.943148654225228 0.23326088544249066 0 0 0
246 1 14.426405586794019 7.451217674116981 2.0407757181819814 0 0 0
247 1 17.94148272020871 5.441552713927349 -3.3817289829514046 0 0 0
248 1 16.93033160442816 6.9486645471806145 -1.574234127753866 0 0 0
249 1 15.915720145456106 8.455870888716364 0.23326854252150706 0 0 0
250 1 14.899456378090079 9.962655678935528 2.040763909315606 0 0 0
251 1 18.422640323689535 7.953025324998977 -3.381732558725955 0 0 0
252 1 17.409160515876394 9.459360554836865 -1.5742310703489855 0 0 0
253 1 16.395302628098662 10.965223477583423 0.2332691254825686 0 0 0
254 1 15.381924990531274 12.47054566221364 2.0407636822607524 0 0 0
255 1 18.906018285951447 10.462057102822998 -3.381732280920913 0 0 0
256 1 17.89430029485092 11.967188086065883 -1.5742310625644862 0 0 0
257 1 19.396100047258386 12.968627390311001 -3.3817313802871745 0 0 0
258 1 14.369074863762691 -12.092784217567415 0.23326319500511783 0 0 0
259 1 13.35682388799701 -10.588755746891717 2.0408040779073406 0 0 0
260 1 16.88319242953412 -12.596352518431226 -3.3817305001613116 0 0 0
261 1 15.873288123066544 -11.092495100814412 -1.574241144499717 0 0 0
262 1 14.865829435372035 -9.589735856640129 0.23327430328545787 0 0 0
263 1 13.863189176692046 -8.088426825470671 2.0407365098709955 0 0 0
264 1 17.381646846647413 -10.092741458378379 -3.3817335230917696 0 0 0
265 1 16.37915183618435 -8.590878226319024 -1.5742222837588031 0 0 0
266 1 15.381749426905884 -7.090127113224638 0.23326432793089621 0 0 0
267 1 14.390047299235832 -5.590256382480126 2.0407792579985373 0 0 0
268 1 17.894194966944895 -7.591569581616571 -3.3817304426762114 0 0 0
269 1 16.899780927577268 -6.090751423939483 -1.5742359209609627 0 0 0
270 1 15.909241712240132 -4.59022382292706 0.23327028792095544 0 0 0
271 1 14.921202204580482 -3.0894507043443156 2.040769301651249 0 0 0
272 1 18.41574471519486 -5.09024157742706 -3.381731741496784 0 0 0
273 1 17.42461475307391 -3.588873860960934 -1.5742307310049979 0 0 0
274 1 16.4343015723383 -2.0870063943707056 0.23327143390219393 0 0 0
275 1 15.44346369349087 -0.584374928081651 2.0407680942753212 0 0 0
276 1 18.936164743693936 -2.5865070605210594 -3.38173223039949 0 0 0
277 1 17.943251133071755 -1.083718834576132 -1.5742310383983846 0 0 0
278 1 16.949234375632187 0.4197975679827728 0.23326371056091075 0 0 0
279 1 15.953370888960393 1.9241516486913852 2.0407695583670815 0 0 0
280 1 19.448900032016 -0.07986479338067731 -3.3817300880670684 0 0 0
281 1 18.45179849536818 1.4244210233612868 -1.5742318962223838 0 0 0
282 1 17.452235571043403 2.929585265922686 0.23327345476754596 0 0 0
283 1 16.4489956209857 4.435816241476184 2.0407662073128225 0 0 0
284 1 19.951550635647948 2.4292914834529284 -3.381733075803222 0 0 0
285 1 18.948422527187944 3.9350202599222595 -1.5742310307694425 0 0 0
286 1 17.941476061418 5.4415558471206875 0.23326547006594806 0 0 0
287 1 16.930325513608807 6.94866301356234 2.0407702909171794 0 0 0
288 1 20.443503290257866 4.940068173896799 -3.3817307462414985 0 0 0
289 1 19.434458445348852 6.4464717530343645 -1.5742324140974655 0 0 0
290 1 18.422650869259797 7.953021856231951 0.23326875229733515 0 0 0
291 1 17.409161743284358 9.459359814205891 2.040766985669236 0 0 0
292 1 20.929141600840723 7.450544187850424 -3.3817321226922994 0 0 0
293 1 19.917884148721782 8.956465980052956 -1.5742315883284859 0 0 0
294 1 18.906005349513393 10.462059780426204 0.2332683797123342 0 0 0
295 1 17.89429756490877 11.967189788062841 2.0407670203081945 0 0 0
296 1 21.415802912002107 9.959223771922682 -3.381731874452344 0 0 0
297 1 20.405660117919965 11.464173440586583 -1.5742316274152888 0 0 0
298 1 19.39611251508171 12.96862615906514 0.23326758191459745 0 0 0
299 1 21.907816528285636 12.465824409991738 -3.3817316484917535 0 0 0
300 1 16.883232872941548 -12.596355691609975 0.2332664000008853 0 0 0
301 1 15.873305023188067 -11.092502586810584 2.040777140096846 0 0 0
302 1 18.38776580250962 -11.595689297870617 -1.5742343064953472 0 0 0
303 1 17.38161731638398 -10.092742889483665 0.23326987620922318 0 0 0
304 1 16.379126339585994 -8.590869233907567 2.0407589219643785 0 0 0
305 1 19.895335460135072 -10.59535590012998 -3.3817322786576343 0 0 0
306 1 18.892871854875082 -9.09304477361462 -1.5742290194869268 0 0 0
307 1 17.894209075295223 -7.591566912848281 0.23326723033129776 0 0 0
308 1 16.899810463272885 -6.090759203381977 2.04077303330445 0 0 0
309 1 20.405404909975744 -8.093007996988042 -3.381731351760437 0 0 0
310 1 19.4090570803983 -6.591497836274384 -1.5742331961632445 0 0 0
311 1 18.41574111069643 -5.090242568432733 0.23326879986618063 0 0 0
312 1 17.424585698523245 -3.5888687695971004 2.0407680411741462 0 0 0
313 1 20.92245280667308 -5.590585146871971 -3.381731634295621 0 0 0
314 1 19.928872659180044 -4.088715746309626 -1.574231075867852 0 0 0
315 1 18.9361648996873 -2.5865071634575916 0.23326935562876044 0 0 0
316 1 17.943274743432 -1.0837204316885014 2.040768287343981 0 0 0
317 1 21.439093741435812 -3.0863775562054165 -3.381731797330799 0 0 0
318 1 20.444412408232864 -1.5834212940186951 -1.5742314444733188 0 0 0
319 1 19.448899711695077 -0.07986442220301626 0.23326710983197407 0 0 0
320 1 18.451782236624226 1.42442033087959 2.0407689061003516 0 0 0
321 1 21.9498589350452 -0.579835291954927 -3.3817311632443396 0 0 0
322 1 20.95174016914585 0.9243702509711333 -1.5742317256052922 0 0 0
323 1 19.951551804532656 2.4292908655315717 0.2332698934808415 0 0 0
324 1 18.948430880664546 3.9350216646578513 2.040767731297666 0 0 0
325 1 22.452341154933606 1.9287783130796612 -3.3817320645030544 0 0 0
326 1 21.449378806067017 3.4341190679944216 -1.5742314633173973 0 0 0
327 1 20.44350107015913 4.940069125687701 0.23326733981007436 0 0 0
328 1 19.43445538955021 6.446471097123526 2.0407688394389485 0 0 0
329 1 22.946392751263886 4.438646245182509 -3.3817313711179864 0 0 0
330 1 21.93887356072962 5.944517662723223 -1.574231905913339 0 0 0
331 1 20.92914491687003 7.45054313993481 0.2332685440093635 0 0 0
332 1 19.91788502159274 8.956465856246647 2.0407678542266527 0 0 0
333 1 23.435426973775947 6.948333627614433 -3.3817318708748485 0 0 0
334 1 22.425948123169476 8.453895234566373 -1.57423169407976 0 0 0
335 1 21.415798915351246 9.959224607183165 0.23326822322046586 0 0 0
336 1 20.405659153834165 11.464173999761693 2.0407678850629623 0 0 0
337 1 23.924861927214096 9.456672551418963 -3.3817317525601576 0 0 0
338 1 22.916094227709635 10.961460054967853 -1.574231723138291 0 0 0
339 1 21.90782039936458 12.465823976653121 0.2332680315549769 0 0 0
340 1 24.41851818405179 11.963300099270926 -3.381731711156781 0 0 0
341 1 18.38777139192611 -11.595691653159468 2.040770525611583 0 0 0
342 1 20.900639136877203 -12.098484334097341 -1.574232472439005 0 0 0
343 1 19.895326052687636 -10.595356037876513 0.23326870400113103 0 0 0
344 1 18.8928637405227 -9.093042078352688 2.0407655773701676 0 0 0
345 1 22.407490989044902 -11.0976914485972 -3.381731902198559 0 0 0
346 1 21.40499893570089 -9.595031864681673 -1.574230947635906 0 0 0
347 1 20.405409975893335 -8.093007302654778 0.23326801470755282 0 0 0
348 1 19.40906640354504 -6.591500176585125 2.0407700313002493 0 0 0
349 1 22.915634576965857 -8.59444611033082 -3.381731603241668 0 0 0
350 1 21.91785051890433 -7.0924070356865325 -1.574232182922793 0 0 0
351 1 20.92245107400535 -5.590585549237997 0.23326846331116344 0 0 0
352 1 19.92886353711461 -4.088714201454549 2.040768050865228 0 0 0
353 1 23.429249785433683 -6.091169609945613 -3.3817316497681 0 0 0
354 1 22.433762120505776 -4.588891823670439 -1.5742313973442494 0 0 0
355 1 21.43909402794499 -3.0863775238278084 0.2332686863538805 0 0 0
356 1 20.444419935083715 -1.5834219063104413 2.040768415701135 0 0 0
357 1 23.94283368537667 -3.586550505171326 -3.3817316934440087 0 0 0
358 1 22.946656549695106 -2.0834352646733 -1.5742315985009916 0 0 0
359 1 21.94985879715044 -0.5798351578506225 0.2332680152032259 0 0 0
360 1 20.951734834890374 0.9243701828022992 2.040768586084393 0 0 0
361 1 24.451906794274876 -1.080068876573721 -3.381731501281164 0 0 0
362 1 23.452968660472123 0.4240664080267429 -1.5742316691535863 0 0 0
363 1 22.452341555893597 1.9287781003665376 0.23326881615945075 0 0 0
364 1 21.449381817661077 3.4341194225132643 2.0407681623698988 0 0 0
365 1 24.9542823085563 1.4280996338946128 -3.3817317797405306 0 0 0
366 1 23.951469270182585 2.9331367557281443 -1.5742315998734295 0 0 0
367 1 22.946392017489813 4.438646537717867 0.2332680025144665 0 0 0
368 1 21.938872250654953 5.9445174384138735 2.0407684511368247 0 0 0
369 1 25.449965671234878 3.9372624361885986 -3.3817315797918273 0 0 0
370 1 24.443582538174212 5.442725960982964 -1.5742317530824717 0 0 0
371 1 23.43542802326634 6.948333307855423 0.23326840279884375 0 0 0
372 1 22.425948593695438 8.453895230293897 2.0407681402687206 0 0 0
373 1 25.941617066563566 6.446322101191056 -3.3817317585397513 0 0 0
374 1 24.93355577295341 7.951581004388858 -1.57423170670282 0 0 0
375 1 23.92486068442453 9.456672813425419 0.23326823437570693 0 0 0
376 1 22.91609386219693 10.961460224339222 2.0407681486488123 0 0 0
377 1 26.433343043356984 8.954356249660458 -3.38173171504251 0 0 0
378 1 25.425736122002405 10.45900299784782 -1.574231723893096 0 0 0
379 1 24.418519392457256 11.963299952260266 0.2332682000494722 0 0 0
380 1 26.92837710872587 11.461001617590918 -3.3817317145531893 0 0 0
381 1 25.92279068188813 12.964875184092014 -1.574231784089345 0 0 0
382 1 20.900640948187103 -12.098485086770426 2.0407688473123855 0 0 0
383 1 23.41222994347224 -12.600982199848154 -1.5742319472646493 0 0 0
384 1 22.407487992438305 -11.097691414697168 0.23326839297325755 0 0 0
385 1 21.40499635247997 -9.595031047403902 2.0407674971070615 0 0 0
386 1 24.91846522826907 -11.599822421471199 -3.3817317750740283 0 0 0
387 1 23.915924527423527 -10.096888404719724 -1.5742314926286758 0 0 0
388 1 22.915636331021147 -8.594445942695517 0.2332682210919775 0 0 0
389 1 21.91785346594591 -7.092407747524331 2.0407688897008516 0 0 0
390 1 25.425101955953423 -9.09588136243121 -3.3817316718050483 0 0 0
391 1 24.4262332469372 -7.593434257625974 -1.5742318462266118 0 0 0
392 1 23.42924906416313 -6.091169744507536 0.23326836586940028 0 0 0
393 1 22.433759242271066 -4.588891342081867 2.0407681959723636 0 0 0
394 1 25.93607022440213 -6.591935179456155 -3.3817316696074395 0 0 0
395 1 24.93908930309071 -5.0893269720813334 -1.5742315659580361 0 0 0
396 1 23.94283387273974 -3.586550475396601 0.23326845437319962 0 0 0
397 1 22.94665895930106 -2.0834354824118293 2.040768411582972 0 0 0
398 1 26.447194727700506 -4.086968135010645 -3.3817316762169223 0 0 0
399 1 25.449780625308065 -2.583711837759477 -1.5742316500746851 0 0 0
400 1 24.45190672355399 -1.080068836492316 0.2332682530986392 0 0 0
401 1 23.452966912613647 0.42406642444452736 2.040768433893402 0 0 0
402 1 26.95484743113063 -1.5805210896101247 -3.3817316159107365 0 0 0
403 1 25.955242792366178 -0.07644187761713184 -1.574231661528639 0 0 0
404 1 24.954282444142223 1.4280995624599377 0.2332684839097604 0 0 0
405 1 23.951470323453535 2.9331368380555247 2.0407682820370363 0 0 0
406 1 27.457132955735233 0.9272904802958593 -3.3817317036772296 0 0 0
407 1 26.454437404927177 2.43209010881791 -1.5742316491663473 0 0 0
408 1 25.44996543142676 3.9372625278883024 0.23326822048455695 0 0 0
409 1 24.443582022424167 5.442725893268518 2.0407683504428866 0 0 0
410 1 27.954084390328035 3.4359012186377047 -3.3817316487367415 0 0 0
411 1 26.948562404974737 4.941047838887885 -1.574231706361374 0 0 0
412 1 25.941617400244127 6.4463220029138615 0.23326834272508087 0 0 0
413 1 24.933555989928124 7.951581011021377 2.040768244232705 0 0 0
414 1 28.4477742436502 5.944459448529679 -3.381731713731389 0 0 0
415 1 27.44084062693301 7.449468693034378 -1.574231701314359 0 0 0
416 1 26.433342654656002 8.954356331938024 0.23326826663937347 0 0 0
417 1 25.42573597829748 10.45900304638864 2.040768241760146 0 0 0
418 1 28.9413693048036 8.452231303375198 -3.381731701220999 0 0 0
419 1 27.9347235542171 9.956758300995839 -1.5742317113519857 0 0 0
420 1 26.9283774875461 11.46100156849342 0.23326826380994223 0 0 0
421 1 25.922790873785488 12.964875109405382 2.040768321331745 0 0 0
422 1 29.437547464040478 10.958885655727167 -3.3817317063181656 0 0 0
423 1 28.43252367888107 12.462785433583152 -1.5742317281087455 0 0 0
424 1 23.412230529378135 -12.600982438957745 2.040768422617317 0 0 0
425 1 24.91846427215694 -11.599822391427608 0.23326831427834044 0 0 0
426 1 23.915923706928808 -10.096888152799371 2.040768056139896 0 0 0
427 1 27.42851516002058 -12.101798309344037 -3.3817317273110876 0 0 0
428 1 26.42592608851183 -10.598647171492773 -1.574231643480909 0 0 0
429 1 25.425102551072797 -9.095881325280327 0.2332682776763653 0 0 0
430 1 24.42623418037512 -7.593434476325861 2.0407684969125626 0 0 0
431 1 27.93397044673091 -9.597312648381697 -3.381731689437868 0 0 0
432 1 26.934272492351738 -8.094548041035496 -1.5742317398129 0 0 0
433 1 25.936069946366672 -6.591935219992606 0.23326833201543298 0 0 0
434 1 24.939088391345024 -5.08932682009508 2.0407682739848596 0 0 0