#LAMMPS data file
112 atoms
2 atom types
-125.1250000000 125.1250000000 xlo xhi
-13.0340632500 13.0340632500 ylo yhi
-3.6150000000 3.6150000000 zlo zhi
0.0 0.0 0.0 xy xz yz

Atoms # atomic

1 1 -3.5055549911 10.5605510852 -1.5783196885
2 1 -2.4762059371 11.9983131141 0.2291803074
3 1 -0.7527090922 11.0476377520 -1.5783197160
4 1 -3.5055549912 10.5605510848 2.0366803108
5 1 -2.4762059369 11.9983131144 -3.3858196920
6 1 -3.2336279142 8.0358390324 -1.5783196871
7 1 -2.0393619801 9.5495610829 0.2291802977
8 1 -0.7527090943 11.0476377532 2.0366802843
9 1 -0.7527085169 8.3612750726 -1.5783197157
10 1 -3.2336279141 8.0358390318 2.0366803130
11 1 -2.0393619806 9.5495610829 -3.3858197024
12 1 -2.4762055846 5.4812816479 -1.5783196927
13 1 -1.9035384308 7.0004333438 0.2291803061
14 1 -0.7527085168 8.3612750729 2.0366802842
15 1 -3.5055547863 4.0435195733 0.2291803105
16 1 -2.4762055843 5.4812816478 2.0366803070
17 1 -1.9035384303 7.0004333441 -3.3858196944
18 1 -2.0393620061 3.0325296631 -1.5783197028
19 1 -0.7527084949 4.5306065041 0.2291802846
20 1 -3.5055547859 4.0435195732 -3.3858196901
21 1 -3.2336282107 1.5188075323 0.2291803123
22 1 -2.0393620063 3.0325296624 2.0366802972
23 1 -0.7527084950 4.5306065041 -3.3858197160
24 1 -1.9035389633 0.4834017881 -1.5783196942
25 1 -0.7527088974 1.8442439326 0.2291802846
26 1 -3.2336282107 1.5188075325 -3.3858196871
27 1 -3.5055558218 -2.4735120506 -1.5783196899
28 1 -2.4762064728 -1.0357498656 0.2291803070
29 1 -1.9035389608 0.4834017883 2.0366803059
30 1 -0.7527088973 1.8442439326 -3.3858197165
31 1 -0.7527099271 -1.9864249109 -1.5783197180
32 1 -3.5055558221 -2.4735120508 2.0366803097
33 1 -2.4762064724 -1.0357498656 -3.3858196932
34 1 -3.2336295378 -4.9982242140 -1.5783196881
35 1 -2.0393634698 -3.4845019400 0.2291802959
36 1 -0.7527099265 -1.9864249109 2.0366802823
37 1 -0.7527104996 -4.6727875725 -1.5783197168
38 1 -3.2336295382 -4.9982242148 2.0366803118
39 1 -2.0393634697 -3.4845019399 -3.3858197039
40 1 -2.4762068248 -7.5527816466 -1.5783196935
41 1 -1.9035403652 -6.0336297619 0.2291803048
42 1 -0.7527104999 -4.6727875724 2.0366802824
43 1 -3.5055560222 -8.9905437876 0.2291803100
44 1 -2.4762068241 -7.5527816471 2.0366803063
45 1 -1.9035403669 -6.0336297621 -3.3858196953
46 1 -2.0393634400 -10.0015337667 -1.5783197025
47 1 -0.7527105205 -8.5034569085 0.2291802834
48 1 -3.5055560220 -8.9905437874 -3.3858196891
49 1 -3.2336292380 -11.5152559634 0.2291803125
50 1 -2.0393634405 -10.0015337669 2.0366802971
51 1 -0.7527105208 -8.5034569090 -3.3858197170
52 1 -1.9035398346 -12.5506614563 -1.5783196937
53 1 -0.7527101197 -11.1898196794 0.2291802847
54 1 -3.2336292380 -11.5152559636 -3.3858196867
55 1 -1.9035398336 -12.5506614555 2.0366803060
56 1 -0.7527101193 -11.1898196793 -3.3858197161
57 2 -0.5092330912 -2.4750959548 2.0424172690
58 2 -1.5385813936 11.9967285449 -3.3800827161
59 2 -0.7811601695 -4.9998081742 2.0424172649
60 2 -0.5092318558 10.5589665390 -1.5725827068
61 2 -1.5385814011 11.9967285511 0.2349172721
62 2 -1.9754243225 9.5479763925 -3.3800827468
63 2 -0.5092318677 10.5589665526 2.0424172844
64 2 -2.1112473225 6.9988486978 -3.3800827056
65 2 -0.7811580205 8.0342544232 -1.5725827143
66 2 -1.9754243289 9.5479763958 0.2349172756
67 2 -2.1112473617 6.9988486968 0.2349172888
68 2 -0.7811580283 8.0342544228 2.0424172972
69 2 -0.5092312476 4.0419352129 -3.3800826959
70 2 -1.5385803312 5.4796971442 -1.5725827084
71 2 -0.5092312457 4.0419352056 0.2349173080
72 2 -1.5385803350 5.4796971357 2.0424172952
73 2 -0.7811584710 1.5172232901 -3.3800827015
74 2 -1.9754244251 3.0309453309 -1.5725827243
75 2 -2.1112479241 0.4818178729 -1.5725827031
76 2 -0.7811584788 1.5172233005 0.2349173006
77 2 -1.9754244393 3.0309453276 2.0424172808
78 2 -1.5385821802 -1.0373340187 -3.3800827086
79 2 -2.1112478899 0.4818178601 2.0424172993
80 2 -0.5092331216 -2.4750959497 -1.5725827233
81 2 -1.5385821776 -1.0373340134 0.2349172727
82 2 -1.9754259326 -3.4860861444 -3.3800827443
83 2 -1.5385831512 -7.5543658965 2.0424172377
84 2 -2.1112493736 -6.0352139294 -3.3800827423
85 2 -0.7811601627 -4.9998081683 -1.5725827370
86 2 -1.9754259083 -3.4860861450 0.2349172460
87 2 -1.5385831590 -7.5543659124 -1.5725827622
88 2 -2.1112493475 -6.0352139292 0.2349172499
89 2 -1.9754258348 -10.0031183112 -1.5725827581
90 2 -0.5092336696 -8.9921279029 -3.3800827562
91 2 -1.9754258642 -10.0031183148 2.0424172399
92 2 -0.5092336667 -8.9921279021 0.2349172639
93 2 -2.1112487496 -12.5522462602 -1.5725827024
94 2 -0.7811596804 -11.5168402833 -3.3800827242
95 2 -2.1112487427 -12.5522462578 2.0424172902
96 2 -0.7811596793 -11.5168402807 0.2349172805
97 2 -3.2620779044 11.0460530320 -1.5725827388
98 2 -3.2620779220 11.0460530431 2.0424172569
99 2 -3.2620773988 8.3596903635 -1.5725826983
100 2 -3.2620774058 8.3596903744 2.0424172823
101 2 -3.2620775334 4.5290217260 0.2349172892
102 2 -3.2620775256 4.5290217240 -3.3800827279
103 2 -3.2620778506 1.8426591639 0.2349172904
104 2 -3.2620778463 1.8426591688 -3.3800826965
105 2 -3.2620786922 -1.9880097409 -1.5725827361
106 2 -3.2620786836 -1.9880097112 2.0424172663
107 2 -3.2620791749 -4.6743723932 -1.5725827314
108 2 -3.2620791646 -4.6743723723 2.0424172689
109 2 -3.2620790807 -8.5050416728 0.2349172389
110 2 -3.2620790753 -8.5050416805 -3.3800827699
111 2 -3.2620787677 -11.1914044439 0.2349172497
112 2 -3.2620787650 -11.1914044486 -3.3800827194
