LAMMPS data file via write_data, version 29 Aug 2024, timestep = 804, units = metal

3182 atoms
2 atom types

-100.1 100.1 xlo xhi
-13.03406325 13.03406325 ylo yhi
-3.615 3.615 zlo zhi
0 0 0 xy xz yz

Masses

1 63.55
2 63.55

Atoms # atomic

1 1 0.6642923057436434 8.585904255310966 -3.44422901969284 0 0 0
2 1 0.7531684024441745 11.088654484492155 -3.3673447940377415 0 0 0
3 1 0.06522828213246612 -4.5604330057122535 -3.388587954698696 0 0 0
4 1 0.8633797733030235 -1.9755460972225194 -3.344265706724474 0 0 0
5 1 1.521583389529141 0.5714691078609082 -3.372522886914865 0 0 0
6 1 0.4750610410067537 2.1554070151105442 -1.5788656018782696 0 0 0
7 1 1.9379180162075045 3.1281559896327114 -3.379181617057713 0 0 0
8 1 0.9227273687017288 4.635215152465337 -1.5788657642843769 0 0 0
9 1 2.4934068652595442 5.625899872158515 -3.366449653642199 0 0 0
10 1 1.4516147095702223 7.161819522084043 -1.5788657156414958 0 0 0
11 1 0.6642927845294508 8.585904043214287 0.28649681688532197 0 0 0
12 1 3.0547826847744943 8.1475176013565 -3.376094777145558 0 0 0
13 1 1.9979947673057552 9.699854894188656 -1.578865934535349 0 0 0
14 1 0.7531685527385292 11.08865480717664 0.20961195973592764 0 0 0
15 1 3.326391447476553 10.727909084572191 -3.380283425996629 0 0 0
16 1 2.0606525423911677 12.345261118578664 -1.578866224386793 0 0 0
17 1 0.3981624680504581 -12.531626029404212 -3.331676486851481 0 0 0
18 1 0.815396464171954 -10.962274823435607 -1.57886733511341 0 0 0
19 1 2.048733763777051 -9.947316821967073 -3.4029289525754143 0 0 0
20 1 0.7719414611762261 -8.494482524809797 -1.5788669231619024 0 0 0
21 1 2.173063041849261 -7.420767259343748 -3.387145368205996 0 0 0
22 1 0.9993310737436332 -6.008033440784441 -1.5788662452134066 0 0 0
23 1 -0.5483288754855948 -2.725447648092638 2.0361338403260656 0 0 0
24 1 2.6603903107514526 -4.956636207421104 -3.3778039350716123 0 0 0
25 1 1.7106783447727452 -3.5168076600036695 -1.5788657764874892 0 0 0
26 1 0.8633797393758442 -1.9755458884426051 0.18653377435435864 0 0 0
27 1 3.3430262036415 -2.4786599107151677 -3.381877921844648 0 0 0
28 1 2.4560256551826996 -0.9810168380588404 -1.5788655217812653 0 0 0
29 1 1.521583274642154 0.5714690848862656 0.2147917464097517 0 0 0
30 1 0.5210348444719131 2.1871654431385625 2.0361340306608446 0 0 0
31 1 3.957783339583685 0.04599837585008615 -3.388411531910807 0 0 0
32 1 2.9630249147619594 1.5810588342785632 -1.5788653275006865 0 0 0
33 1 1.9379180486492373 3.1281559479857624 0.2214503750326431 0 0 0
34 1 0.9273028109404748 4.667481755473746 2.0361339961910794 0 0 0
35 1 4.438713706187983 2.5839527897187384 -3.389607426005692 0 0 0
36 1 3.4492758440981106 4.09960265442872 -1.5788652681439617 0 0 0
37 1 2.4934066343286503 5.625900027273568 0.2087185995271799 0 0 0
38 1 1.6035207700848986 7.10956209092401 2.0361340428816868 0 0 0
39 1 4.969263938175601 5.097363969998002 -3.3827088690328164 0 0 0
40 1 3.9833763425256024 6.624284794245797 -1.5788653200790321 0 0 0
41 1 3.05478247508465 8.147517733299063 0.2183638606680861 0 0 0
42 1 2.0108665420655285 9.728586795851912 2.036134015044567 0 0 0
43 1 5.491122421624198 7.621674012006602 -3.381971973526561 0 0 0
44 1 4.458402691643386 9.17102937657547 -1.578865333488479 0 0 0
45 1 3.3263914680467366 10.727909224465241 0.22255213528876486 0 0 0
46 1 2.0306826581195168 12.364588626718424 2.0361337690076833 0 0 0
47 1 5.869329469433225 10.164116317490981 -3.388610303522384 0 0 0
48 1 4.7929412814721815 11.692046270506806 -1.5788654878628468 0 0 0
49 1 6.3581045675505266 12.644860731623796 -3.3866771330540835 0 0 0
50 1 0.3981627946678543 -12.53162587768517 0.17394266082494378 0 0 0
51 1 0.814261854544938 -11.078849713431746 2.0361332081369556 0 0 0
52 1 3.7865282798450153 -12.909587612542767 -3.389635515473481 0 0 0
53 1 3.099767850210597 -11.419475257671902 -1.5788659714365443 0 0 0
54 1 2.0487337195865507 -9.947317258955005 0.24519602460158588 0 0 0
55 1 0.7989638960658425 -8.538891172080318 2.036133152800268 0 0 0
56 1 4.499277601761193 -10.400032110761737 -3.381653650185785 0 0 0
57 1 3.3522630129686917 -8.884482446666372 -1.578866075467071 0 0 0
58 1 2.1730630777347955 -7.420767561871283 0.229412483352787 0 0 0
59 1 1.0194694591942977 -6.006460005014304 2.036133439940327 0 0 0
60 1 4.780768910103205 -7.87457243587348 -3.381975754683163 0 0 0
61 1 3.6790937583571406 -6.398474431671473 -1.5788658764492782 0 0 0
62 1 2.660390152697744 -4.956636234821261 0.22007219710469203 0 0 0
63 1 1.7679200547481173 -3.513073007966131 2.0361340273180484 0 0 0
64 1 5.246682335502257 -5.40064865384221 -3.3844652872478593 0 0 0
65 1 4.270822776482703 -3.9369830254854303 -1.5788654256208297 0 0 0
66 1 3.343026264238901 -2.4786598535693614 0.22414704836517207 0 0 0
67 1 2.4410014480326225 -0.9952414591045162 2.036134569999189 0 0 0
68 1 5.85537898535226 -2.9298596415832012 -3.3859040692843645 0 0 0
69 1 4.915924692210282 -1.4501617670108633 -1.5788649733238753 0 0 0
70 1 3.9577834513477796 0.0459982909030181 0.23068137622725832 0 0 0
71 1 2.962132745813804 1.5710622538507568 2.036134673691206 0 0 0
72 1 6.434713126478528 -0.4294121456590947 -3.3868647565398846 0 0 0
73 1 5.443301406651997 1.0723756299125515 -1.5788647552666684 0 0 0
74 1 4.438713767031544 2.5839528388779556 0.231877460690374 0 0 0
75 1 3.4354624811189183 4.107573940028532 2.036134802132585 0 0 0
76 1 6.940454638777936 2.0860244140643776 -3.3870962656443853 0 0 0
77 1 5.947149645915218 3.5865706223531593 -1.5788646457900626 0 0 0
78 1 4.969263884127528 5.097364054884464 0.2249789734866912 0 0 0
79 1 4.025792048090267 6.610408645663968 2.0361349340548762 0 0 0
80 1 7.458478092962736 4.595587878488809 -3.385347120934581 0 0 0
81 1 6.470264075620335 6.103408961088631 -1.5788645603242188 0 0 0
82 1 5.491122568772411 7.621673974296469 0.2242422946961845 0 0 0
83 1 4.4521003240861745 9.160087799400104 2.0361348677937197 0 0 0
84 1 7.9617711363391805 7.114390538495472 -3.3849957351001114 0 0 0
85 1 6.937758778982072 8.636591371934125 -1.5788647010417443 0 0 0
86 1 5.869329523812468 10.16411624728685 0.23088017807524483 0 0 0
87 1 4.786909854981332 11.686241948431979 2.036134665211792 0 0 0
88 1 8.39413097612477 9.640426302619007 -3.3871888543504207 0 0 0
89 1 7.354198318645018 11.151110735367427 -1.578864832078402 0 0 0
90 1 6.3581045019599 12.64486063926782 0.22894685547436722 0 0 0
91 1 8.886177142467247 12.138048684609318 -3.38613630824742 0 0 0
92 1 3.7865280800163816 -12.909587659372436 0.23190409289345687 0 0 0
93 1 3.119943203619087 -11.406980071124922 2.036134208399648 0 0 0
94 1 5.4743468803203115 -11.93219966813621 -1.5788653072273544 0 0 0
95 1 4.49927747963558 -10.400032174428642 0.22392237744816937 0 0 0
96 1 3.3761632162638193 -8.871508120246636 2.036133705718214 0 0 0
97 1 6.9456090182345065 -10.916094008363677 -3.3853371341587675 0 0 0
98 1 5.886500156516675 -9.387006252148156 -1.5788653821880845 0 0 0
99 1 4.780769000671782 -7.8745723800341 0.2242443092166483 0 0 0
100 1 3.680009715170314 -6.388989149046234 2.0361340251790874 0 0 0
101 1 7.330676101481856 -8.38912526520951 -3.3867402737547345 0 0 0
102 1 6.272482657962783 -6.883356301452218 -1.5788652938424246 0 0 0
103 1 5.246682278495484 -5.400648524281247 0.2267346167382882 0 0 0
104 1 4.283121438884834 -3.9367012390632947 2.036134639877201 0 0 0
105 1 7.801673624428972 -5.897141703095233 -3.3866327285042535 0 0 0
106 1 6.813913683357924 -4.408395793254595 -1.57886474494555 0 0 0
107 1 5.855379019441386 -2.9298596273354427 0.22817431315957418 0 0 0
108 1 4.909898768123782 -1.4513767089144505 2.0361349966457047 0 0 0
109 1 8.367878051158087 -3.4143799063945117 -3.386439295139974 0 0 0
110 1 7.404953047442689 -1.9233006219964857 -1.5788643886393277 0 0 0
111 1 6.434713134875267 -0.42941211264819046 0.22913551749880298 0 0 0
112 1 5.445951003719273 1.0720651402938994 2.0361352122615997 0 0 0
113 1 8.925706573195896 -0.9165329457790676 -3.3864697043711796 0 0 0
114 1 7.937484668561794 0.5842587889463093 -1.5788641410034332 0 0 0
115 1 6.940454587598978 2.0860243322566046 0.2293674979247892 0 0 0
116 1 5.94298182233841 3.5917439626541263 2.0361353191262603 0 0 0
117 1 9.441284714886635 1.591753611825597 -3.386522302932427 0 0 0
118 1 8.447366435980072 3.0928980164035256 -1.5788640492254915 0 0 0
119 1 7.458478046865594 4.595587866247511 0.2276185987006849 0 0 0
120 1 6.482448334149396 6.101948168563938 2.0361353918047995 0 0 0
121 1 9.953251303641977 4.0998978948102 -3.3861708559580275 0 0 0
122 1 8.959213636521099 5.60462728230838 -1.5788640083513616 0 0 0
123 1 7.961771122430179 7.114390509855793 0.2272670149158565 0 0 0
124 1 6.934398343346345 8.633890970483675 2.036135300583625 0 0 0
125 1 10.44967393864458 6.614390465795465 -3.386061246753883 0 0 0
126 1 9.432282682676657 8.126341826231156 -1.5788640754121153 0 0 0
127 1 8.394130966768444 9.640426252848735 0.22945990842415284 0 0 0
128 1 7.354439798987968 11.151845501205104 2.0361351324830284 0 0 0
129 1 10.910076128709349 9.131742202687159 -3.3866342542762222 0 0 0
130 1 9.887137205357561 10.638098005159089 -1.5788642031273237 0 0 0
131 1 8.886177171350042 12.138048736274621 0.2284073052745626 0 0 0
132 1 11.401085182662541 11.635648466426053 -3.3862566524086772 0 0 0
133 1 5.481354365782053 -11.933360153136393 2.0361346783830507 0 0 0
134 1 7.926488098442903 -12.431995191344567 -1.5788647363263268 0 0 0
135 1 6.945609049005924 -10.916093982855115 0.22760708869494736 0 0 0
136 1 5.887550450656363 -9.390657180392889 2.0361345950724163 0 0 0
137 1 9.419479383885815 -11.42179677561288 -3.385947501049024 0 0 0
138 1 8.390329061723122 -9.9047065300089 -1.578864720473234 0 0 0
139 1 7.330676187977076 -8.389125193274715 0.229010280333858 0 0 0
140 1 6.268035624421529 -6.8851454963709235 2.036134778137519 0 0 0
141 1 9.85837179176498 -8.902365951996734 -3.386490516400214 0 0 0
142 1 8.820921337801778 -7.395352656071313 -1.5788645386586773 0 0 0
143 1 7.801673623317811 -5.897141785659678 0.22890338420358156 0 0 0
144 1 6.816044187786886 -4.410185476280235 2.0361352420835743 0 0 0
145 1 10.338059532158582 -6.402892164769797 -3.3863594649436317 0 0 0
146 1 9.342698744789331 -4.906568137470744 -1.5788641627025195 0 0 0
147 1 8.36787809298852 -3.414379865804724 0.22871077648778362 0 0 0
148 1 7.4027765270005546 -1.923786383147302 2.0361355767420473 0 0 0
149 1 10.87959961402656 -3.911484341147071 -3.386327948356634 0 0 0
150 1 9.903261873116278 -2.4148671542219766 -1.5788638763548324 0 0 0
151 1 8.925706552124282 -0.9165329659062245 0.22874173109394322 0 0 0
152 1 7.938895239651032 0.5838387439287924 2.0361358399374687 0 0 0
153 1 11.422757537234133 -1.4122799963695662 -3.3863502452153207 0 0 0
154 1 10.434699541789016 0.0894579158505735 -1.578863559153395 0 0 0
155 1 9.441284653240984 1.5917536307808202 0.22879476053829945 0 0 0
156 1 8.445716594360078 3.094105999882478 2.0361359955039506 0 0 0
157 1 11.941103153809166 1.0940868633609817 -3.3863844244934787 0 0 0
158 1 10.946848396241691 2.5968838283909914 -1.5788634806643742 0 0 0
159 1 9.9532512439973 4.099897828245224 0.22844348097096198 0 0 0
160 1 8.962282994272144 5.6041701377770305 2.036136057358022 0 0 0
161 1 12.450264475897441 3.602222599294498 -3.3863326281337436 0 0 0
162 1 11.452532543109143 5.107115907860157 -1.5788634473065104 0 0 0
163 1 10.449673945244314 6.614390398925723 0.22833368529511 0 0 0
164 1 9.430838394069866 8.12558947729966 2.0361359224953794 0 0 0
165 1 12.945321860567589 6.114435347319533 -3.3862970867899977 0 0 0
166 1 11.93280369187572 7.622794978372768 -1.5788634625150995 0 0 0
167 1 10.910076106115298 9.131742182572987 0.22890651442849727 0 0 0
168 1 9.88749437287899 10.63841206184816 2.0361357936441915 0 0 0
169 1 13.42084401140228 8.627649482822397 -3.386436167590866 0 0 0
170 1 12.405874550128857 10.133131278795572 -1.578863632861385 0 0 0
171 1 11.401085177247879 11.63564845588951 0.2285288058401416 0 0 0
172 1 13.911445156788673 11.134137674601115 -3.386322247579941 0 0 0
173 1 12.911810273053192 12.637550369789833 -1.5788636987434794 0 0 0
174 1 7.9291312367218865 -12.43169649713565 2.0361352140010975 0 0 0
175 1 10.41279232723599 -12.930748969009189 -1.5788641809669866 0 0 0
176 1 9.419479435428897 -11.421796761750088 0.2282186492184581 0 0 0
177 1 8.390447235058687 -9.905410572031954 2.0361352995740356 0 0 0
178 1 11.910678186299663 -11.924316757796218 -3.386276013425054 0 0 0
179 1 10.893466723090839 -10.41369323346511 -1.5788640284326585 0 0 0
180 1 9.858371902260885 -8.90236594498239 0.22876192142421542 0 0 0
181 1 8.820153459143256 -7.395184035192935 2.0361354844928616 0 0 0
182 1 12.376862668335477 -9.410577941208453 -3.386425139198794 0 0 0
183 1 11.352579172001768 -7.904501581657682 -1.5788638758891145 0 0 0
184 1 10.33805949017605 -6.4028921046587355 0.22863147896811264 0 0 0
185 1 9.343702903511954 -4.9066128488317595 2.0361357867870367 0 0 0
186 1 12.863998648601779 -6.908083295088157 -3.3863547833688834 0 0 0
187 1 11.864936798883235 -5.408626888838674 -1.5788635961663802 0 0 0
188 1 10.879599655205212 -3.9114843306526286 0.22860055113715966 0 0 0
189 1 9.902700605778676 -2.414725079875595 2.0361361526078174 0 0 0
190 1 13.390992905330663 -4.4115437496393834 -3.3863554141204193 0 0 0
191 1 12.406236141700859 -2.9124382479740554 -1.5788632872491413 0 0 0
192 1 11.422757521172997 -1.412280083626733 0.22862347001452318 0 0 0
193 1 10.435319401792142 0.0893594607652215 2.0361364111242195 0 0 0
194 1 13.92343103978908 -1.9108855807329626 -3.3863610787600353 0 0 0
195 1 12.933779754109182 -0.40878249110570586 -1.5788631094034482 0 0 0
196 1 11.9411030049355 1.0940868498485354 0.22865793327619202 0 0 0
197 1 10.946261648246818 2.597185050495808 2.036136520729094 0 0 0
198 1 14.44118646010233 0.5948460608822064 -3.3863685807352897 0 0 0
199 1 13.446223482532844 2.0983241886663713 -1.5788629148852416 0 0 0
200 1 12.450264387888609 3.6022225746470884 0.2286061941287168 0 0 0
201 1 11.45333726271329 5.107000931865992 2.036136505537927 0 0 0
202 1 14.948890246401007 3.102926314763396 -3.38636129528641 0 0 0
203 1 13.94931602762999 4.607988173019207 -1.5788629732095976 0 0 0
204 1 12.945321951626283 6.114435403422787 0.22857057104082068 0 0 0
205 1 11.932315856696277 7.6226481859007595 2.0361364250163727 0 0 0
206 1 15.444645047333111 5.613746193720379 -3.386347988308659 0 0 0
207 1 14.435496823222536 7.1206087192257375 -1.578863082742122 0 0 0
208 1 13.420844061370985 8.62764957307173 0.22870943576409747 0 0 0
209 1 12.406071576849484 10.133242282233352 2.036136267720531 0 0 0
210 1 15.928762271561425 8.124894480339139 -3.386381830743362 0 0 0
211 1 14.91791648808477 9.630246780479107 -1.5788631420755967 0 0 0
212 1 13.911445221051807 11.134137736869766 0.22859540796785072 0 0 0
213 1 12.911913789001105 12.637528977287106 2.0361364066838816 0 0 0
214 1 16.41988917604195 10.632486920455632 -3.3863495912922614 0 0 0
215 1 15.41579859008661 12.136740896946465 -1.5788631526280785 0 0 0
216 1 10.413387778957599 -12.930763897450706 2.0361357859360116 0 0 0
217 1 11.910678301655963 -11.924316809853122 0.22854834347391673 0 0 0
218 1 10.893337879102774 -10.413948332034712 2.036135945197119 0 0 0
219 1 14.411002492454713 -12.426027797009494 -3.3863500526472285 0 0 0
220 1 13.398747594132018 -10.918648873056158 -1.5788636122252493 0 0 0
221 1 12.376862664062912 -9.410577947354929 0.22869771656979757 0 0 0
222 1 11.35238457850869 -7.904443155021845 2.0361361314716273 0 0 0
223 1 14.891144360186303 -9.915716358249751 -3.386381752341434 0 0 0
224 1 13.874857303152567 -8.410626005733082 -1.5788633343876401 0 0 0
225 1 12.86399855870232 -6.908083260550004 0.22862793421272123 0 0 0
226 1 11.865231590991925 -5.408668600467018 2.0361363933420855 0 0 0
227 1 15.383581173310503 -7.411918846634684 -3.3863560074133976 0 0 0
228 1 14.382713011469306 -5.9109718346993025 -1.5788630882808725 0 0 0
229 1 13.390992950208187 -4.411543694903948 0.2286289775970517 0 0 0
230 1 12.40602122614591 -2.9124113717932794 2.036136744348072 0 0 0
231 1 15.901882414987512 -4.912273787518835 -3.3863614441461767 0 0 0
232 1 14.911588812358474 -3.4118684067816787 -1.5788629240501475 0 0 0
233 1 13.923431000948383 -1.9108856376220604 0.22863513032155502 0 0 0
234 1 12.933984650524039 -0.4088410558922728 2.0361368850207886 0 0 0
235 1 16.426400840646323 -2.41042198596387 -3.386362436134889 0 0 0
236 1 15.43457607648331 -0.9081642481081538 -1.578862679077326 0 0 0
237 1 14.44118638364776 0.5948460839179681 0.2286429879185488 0 0 0
238 1 13.44601426076214 2.098386288779281 2.036137010836549 0 0 0
239 1 16.942203273998985 0.09508014747600235 -3.3863633241905657 0 0 0
240 1 15.946270681130315 1.5987098260312216 -1.5788626330560078 0 0 0
241 1 14.948890276954316 3.102926309693002 0.22863579772782192 0 0 0
242 1 13.949538476515855 4.607954355780803 2.0361370393133544 0 0 0
243 1 17.448970126845623 2.602916867305545 -3.386362915315091 0 0 0
244 1 16.448520019774207 4.107863630417848 -1.5788626130258303 0 0 0
245 1 15.444645025858861 5.6137462256631725 0.22862238032061893 0 0 0
246 1 14.435340872286034 7.12058279081044 2.036136923521546 0 0 0
247 1 17.945951019645733 5.112729175170871 -3.386358557026504 0 0 0
248 1 16.939012200429474 6.618747492260171 -1.578862621495808 0 0 0
249 1 15.928762328412546 8.124894543609381 0.22865603933341538 0 0 0
250 1 14.917994860584827 9.63027617761008 2.0361368737701895 0 0 0
251 1 18.435242582105346 7.622691699442308 -3.386367413251624 0 0 0
252 1 17.426743934363003 9.127941621689851 -1.5788627921599894 0 0 0
253 1 16.419889166355716 10.632486934703332 0.22862371638055898 0 0 0
254 1 15.415805546787382 12.13672873107127 2.0361368684260372 0 0 0
255 1 18.927413726031475 10.130678303245768 -3.386358433575169 0 0 0
256 1 17.921756934666604 11.635282452544176 -1.5788627394567838 0 0 0
257 1 19.42208446242573 12.63836743857708 -3.3863634377799516 0 0 0
258 1 14.41100242812297 -12.426027848003999 0.2286233565158054 0 0 0
259 1 13.398692923328525 -10.918708030154818 2.0361364189187188 0 0 0
260 1 16.915606188094188 -12.927818967534993 -3.3863627533185947 0 0 0
261 1 15.905859551622072 -11.421927345130939 -1.578863096235094 0 0 0
262 1 14.891144293907544 -9.915716333777684 0.2286553442748621 0 0 0
263 1 13.87482340863292 -8.410593974434292 2.0361366620736576 0 0 0
264 1 17.40322912040061 -10.419354456828795 -3.38636755418263 0 0 0
265 1 16.39179704670245 -8.91484213867512 -1.5788629167663368 0 0 0
266 1 15.383581124342385 -7.411918872333035 0.22863004543182147 0 0 0
267 1 14.38280155813834 -5.910985431183609 2.036136839930574 0 0 0
268 1 17.89912067335969 -7.9148766534720085 -3.3863597503950764 0 0 0
269 1 16.897432407591452 -6.413029540114726 -1.5788627783869942 0 0 0
270 1 15.90188243648825 -4.912273793487374 0.2286359051906483 0 0 0
271 1 14.911513633903311 -3.4118566295019566 2.036137127244798 0 0 0
272 1 18.412102841440756 -5.413247739537088 -3.3863627696938594 0 0 0
273 1 17.418149252634976 -3.9119613115574587 -1.578862527684266 0 0 0
274 1 16.42640078115906 -2.4104220554111055 0.22863715930965686 0 0 0
275 1 15.434646511263693 -0.9081816214801659 2.0361372548598093 0 0 0
276 1 18.930786294510796 -2.9104227853618507 -3.3863623816166153 0 0 0
277 1 17.936857702505804 -1.407972198026684 -1.5788623970483828 0 0 0
278 1 16.94220332463817 0.09508020446704357 0.22863841987151892 0 0 0
279 1 15.946202197159693 1.5987268592074795 2.036137369992536 0 0 0
280 1 19.444281726705455 -0.4049572825792964 -3.3863622417197035 0 0 0
281 1 18.447331594533225 1.0986897302498324 -1.5788622642006989 0 0 0
282 1 17.448970171136168 2.6029168133117757 0.2286380940258751 0 0 0
283 1 16.448586821689076 4.107855463396705 2.0361373899249875 0 0 0
284 1 19.950314733997914 2.1025782535717674 -3.3863624136869115 0 0 0
285 1 18.949432023688743 3.607318797216374 -1.5788622893094237 0 0 0
286 1 17.945951045619367 5.112729109775417 0.22863361521217287 0 0 0
287 1 16.938963529957718 6.618744253328627 2.0361373383688863 0 0 0
288 1 20.44847227186986 4.611621326112578 -3.3863610407447666 0 0 0
289 1 19.44296632506581 6.117087390020837 -1.5788623197332357 0 0 0
290 1 18.435242578617917 7.622691772078822 0.22864235772336167 0 0 0
291 1 17.42677191113866 9.127948898645615 2.0361372773155697 0 0 0
292 1 20.94106865656265 7.120804398637874 -3.386363430145811 0 0 0
293 1 19.934046731105354 8.62590507182619 -1.5788623516690787 0 0 0
294 1 18.927413779768287 10.130678356843157 0.2286334399176811 0 0 0
295 1 17.921752621691184 11.635278036044818 2.0361372359775483 0 0 0
296 1 21.434467270007644 9.628838213021629 -3.3863609278060656 0 0 0
297 1 20.428479867640448 11.133531092940375 -1.578862370745247 0 0 0
298 1 19.422084440463223 12.638367414546066 0.22863836540083632 0 0 0
299 1 21.929309988234365 12.136386563798597 -3.386362520201608 0 0 0
300 1 16.91560625611565 -12.927818952148645 0.22863691196160457 0 0 0
301 1 15.90584459743296 -11.421939634113524 2.0361369116073305 0 0 0
302 1 18.413894325677617 -11.92458940096871 -1.5788627458508513 0 0 0
303 1 17.403229099898894 -10.419354497789593 0.22864176231342098 0 0 0
304 1 16.39179187135025 -8.914831097612094 2.0361370477730953 0 0 0
305 1 19.913981392633815 -10.922248183527797 -3.386363512656168 0 0 0
306 1 18.905510770874898 -9.418043392408263 -1.5788626070295364 0 0 0
307 1 17.89912068609361 -7.914876698269061 0.22863433767144675 0 0 0
308 1 16.89745696580833 -6.413035860844575 2.0361372102507502 0 0 0
309 1 20.41201620049368 -8.417332491248146 -3.3863613721376584 0 0 0
310 1 19.409967034929068 -6.914891439531282 -1.5788624622694176 0 0 0
311 1 18.412102900491107 -5.413247682325519 0.22863771802422525 0 0 0
312 1 17.418123653376057 -3.9119571743800297 2.036137503483787 0 0 0
313 1 20.921630922139258 -5.914375000431024 -3.3863624810327932 0 0 0
314 1 19.92522708921055 -4.412436094965903 -1.5788623221832516 0 0 0
315 1 18.93078625833094 -2.9104228204979083 0.2286377286720049 0 0 0
316 1 17.93688153743925 -1.407977483306004 2.0361376013671224 0 0 0
317 1 21.436022671523133 -3.4107597010718163 -3.386362071448783 0 0 0
318 1 20.44028395471406 -1.9080813134146002 -1.5788620807506089 0 0 0
319 1 19.444281734635837 -0.40495725829724094 0.22863790614573842 0 0 0
320 1 18.447309108335574 1.0986944201487816 2.0361378301111923 0 0 0
321 1 21.94731549193513 -0.9052281629125432 -3.3863617986516004 0 0 0
322 1 20.94941422428228 0.5984243789799919 -1.5788619911074149 0 0 0
323 1 19.950314704056623 2.1025782914245053 0.22863812551397494 0 0 0
324 1 18.949452641911506 3.6073162695402576 2.0361376885493665 0 0 0
325 1 22.452707126316724 1.6020349274303705 -3.3863619420038327 0 0 0
326 1 21.451575980063495 3.1065800538680914 -1.5788619658940173 0 0 0
327 1 20.44847232401426 4.611621322408366 0.22863682460002527 0 0 0
328 1 19.442950824813337 6.117087174616218 2.0361376298475107 0 0 0
329 1 22.95182000798603 4.110489369277689 -3.3863613864482107 0 0 0
330 1 21.947252871641467 5.615574907840033 -1.5788619440800329 0 0 0
331 1 20.941068640236807 7.120804403597445 0.22863921316532376 0 0 0
332 1 19.934056274085904 8.62590661652993 2.0361376097515094 0 0 0
333 1 23.446646541160504 6.619111387026985 -3.386362064718031 0 0 0
334 1 22.440640064172925 8.12404682744969 -1.5788619042826435 0 0 0
335 1 21.434467319509864 9.628838248151348 0.22863670783944717 0 0 0
336 1 20.428476934711654 11.133529674799233 2.0361375917361655 0 0 0
337 1 23.941265325234383 9.127036744624329 -3.3863613500396426 0 0 0
338 1 22.935462964919097 10.631698630435688 -1.5788618503817287 0 0 0
339 1 21.92930994791797 12.136386559713737 0.22863836690770772 0 0 0
340 1 24.436763945546602 11.634442856293008 -3.3863617641546466 0 0 0
341 1 18.413891815654125 -11.924591282635513 2.0361373217630367 0 0 0
342 1 20.922233664024958 -12.426961373751578 -1.5788622739777962 0 0 0
343 1 19.913981462462374 -10.92224820720982 0.22863856051358797 0 0 0
344 1 18.905509932729103 -9.4180399874204 2.0361373790849946 0 0 0
345 1 22.42382039760369 -11.424716064434236 -3.386362220533618 0 0 0
346 1 21.417185810958372 -9.9206729931245 -1.578862221764875 0 0 0
347 1 20.412016168462173 -8.417332488645775 0.22863659904893335 0 0 0
348 1 19.409973502960625 -6.914894035046058 2.0361375879119605 0 0 0
349 1 22.92314483158522 -8.91947890616202 -3.386361664972912 0 0 0
350 1 21.920930967927774 -7.416636326085944 -1.5788621652923178 0 0 0
351 1 20.921630947425513 -5.914375037539174 0.22863808795200916 0 0 0
352 1 19.92521876645408 -4.412434728500335 2.0361377957144686 0 0 0
353 1 23.430538382887974 -6.41560267180294 -3.3863619191567005 0 0 0
354 1 22.432462682736755 -4.913176687736966 -1.5788620196404848 0 0 0
355 1 21.436022610397643 -3.410759760699344 0.22863801299204572 0 0 0
356 1 20.44029192994246 -1.9080828369535325 2.0361378132132635 0 0 0
357 1 23.941765608004502 -3.9113559896315753 -3.3863617019421333 0 0 0
358 1 22.94455062527618 -2.4084531060136527 -1.5788617404735572 0 0 0
359 1 21.947315533673944 -0.9052281554861565 0.22863803963143695 0 0 0
360 1 20.949407017596826 0.5984257691889994 2.036137986996344 0 0 0
361 1 24.451134791956264 -1.4057121256428484 -3.3863615379072134 0 0 0
362 1 23.452396209640398 0.09795673587916731 -1.5788616816106569 0 0 0
363 1 22.452707103265766 1.6020349082711274 0.2286383039265249 0 0 0
364 1 21.451582483434407 3.1065792607794496 2.0361380231020707 0 0 0
365 1 24.955945121918234 1.1013350041857084 -3.3863614451645847 0 0 0
366 1 23.95463558681587 2.6057230019797597 -1.5788615900568135 0 0 0
367 1 22.951820040877934 4.11048943128573 0.22863789643508955 0 0 0
368 1 21.94724785252768 5.615575007523221 2.0361380765638843 0 0 0
369 1 25.455775569801432 3.609341098833619 -3.386361248435498 0 0 0
370 1 24.451834032240882 5.114156058410581 -1.5788614926711926 0 0 0
371 1 23.44664657059296 6.619111369569966 0.22863877805522512 0 0 0
372 1 22.44064313096257 8.12404711624214 2.0361380975898293 0 0 0
373 1 25.952177133227494 6.117537343482384 -3.3863613054979984 0 0 0
374 1 24.9469152407557 7.622314584296079 -1.5788614349502554 0 0 0
375 1 23.941265290895544 9.127036789296215 0.22863803712612837 0 0 0
376 1 22.935461693103505 10.63169823153004 2.0361381333402675 0 0 0
377 1 26.447916422337627 8.625295727911132 -3.386360956674871 0 0 0
378 1 25.442490758111077 10.12988043285606 -1.5788613409929086 0 0 0
379 1 24.436763950030723 11.634442832501728 0.22863852765768375 0 0 0
380 1 26.944214151610794 11.132568290655898 -3.3863611876855884 0 0 0
381 1 25.938686747267482 12.636962645145038 -1.5788613818119062 0 0 0
382 1 20.922233840269612 -12.426961601803958 2.036137741531993 0 0 0
383 1 23.430548182895365 -12.929139005759767 -1.5788618268997656 0 0 0
384 1 22.42382038135166 -11.424716136906767 0.22863813758575297 0 0 0
385 1 21.417185474759748 -9.920672069909774 2.0361377184075216 0 0 0
386 1 24.932978634999884 -11.92690720584291 -3.3863614696140965 0 0 0
387 1 23.927512793323416 -10.42294645347611 -1.5788617840708117 0 0 0
388 1 22.923144806669484 -8.919478869055808 0.22863776315238202 0 0 0
389 1 21.920932698236413 -7.416637114947532 2.036137866256247 0 0 0
390 1 25.43306459135586 -9.421418244209267 -3.3863613896884646 0 0 0
391 1 24.43076393884354 -7.918297843386411 -1.5788617124754762 0 0 0
392 1 23.43053841346429 -6.415602758191555 0.22863823297935548 0 0 0
393 1 22.432460178647034 -4.913176190985309 2.0361380177087702 0 0 0
394 1 25.93893014732953 -6.916890386030149 -3.3863615062959207 0 0 0
395 1 24.939688733003024 -5.414102132211129 -1.578861542990633 0 0 0
396 1 23.94176556595194 -3.911355995281303 0.22863826469126974 0 0 0
397 1 22.94455322963472 -2.4084536431382766 2.0361382151526377 0 0 0
398 1 26.447810644470678 -4.412147003188803 -3.386361298778201 0 0 0
399 1 25.449423114636673 -2.909045465165658 -1.578861432822668 0 0 0
400 1 24.451134782682374 -1.4057120980224003 0.22863846952964686 0 0 0
401 1 23.45239386907825 0.09795725196497607 2.036138337230181 0 0 0
402 1 26.955573653482475 -1.9063780256529075 -3.386361035624638 0 0 0
403 1 25.95612235605519 -0.4026843590751916 -1.5788612236963415 0 0 0
404 1 24.955945089744873 1.101334944609464 0.22863864132654238 0 0 0
405 1 23.95463761531458 2.6057227887773475 2.036138384004081 0 0 0
406 1 27.459857513762415 0.6005080649970864 -3.3863609388609324 0 0 0
407 1 26.458394804967895 2.1047770911220383 -1.5788611241197714 0 0 0
408 1 25.45577560554267 3.6093412037835133 0.2286385660780604 0 0 0
409 1 24.451832443993865 5.114156058529334 2.0361385034165767 0 0 0
410 1 27.96020313166531 3.108172735110001 -3.386360798421138 0 0 0
411 1 26.956685039467075 4.612789637133231 -1.5788610755689059 0 0 0
412 1 25.952177139451067 6.117537340039293 0.22863884385863184 0 0 0
413 1 24.946916188577376 7.6223146935114325 2.036138531613543 0 0 0
414 1 28.45775518442153 5.616036078399562 -3.3863607218391722 0 0 0
415 1 27.4530616538664 7.120672289947864 -1.5788609511127858 0 0 0
416 1 26.447916434139657 8.625295758639721 0.22863862203948274 0 0 0
417 1 25.442490329483064 10.129880362037538 2.0361386068047427 0 0 0
418 1 28.954478313352382 8.123616452492163 -3.3863605981970206 0 0 0
419 1 27.949474512567548 9.628112459219656 -1.57886091641935 0 0 0
420 1 26.94421413119842 11.132568303140419 0.2286389313124765 0 0 0
421 1 25.938686854133266 12.636962808093392 2.0361387028324898 0 0 0
422 1 29.45156456035147 10.630770049294819 -3.3863605539387382 0 0 0
423 1 28.446595189281084 12.135062313367948 -1.578860791154179 0 0 0
424 1 23.430548630052073 -12.929138969479768 2.036138181829951 0 0 0
425 1 24.932978541399038 -11.926907254780904 0.2286384126997616 0 0 0
426 1 23.927512538721942 -10.422946227470469 2.0361382589213632 0 0 0
427 1 27.44160395890148 -12.42890570061882 -3.386360966978743 0 0 0
428 1 26.436907003503137 -10.924982695579326 -1.5788612508768776 0 0 0
429 1 25.433064465330276 -9.421418217375773 0.22863845342146208 0 0 0
430 1 24.430764349077478 -7.918298095778198 2.0361383263521313 0 0 0
431 1 27.942134873697967 -9.92321295563518 -3.3863609158464727 0 0 0
432 1 26.939777409157315 -8.419894610037344 -1.578861151995672 0 0 0
433 1 25.938930219714777 -6.916890419297042 0.22863865457674099 0 0 0