# LAMMPS data file Sigma = 13, inclination = 0.000000
#LAMMPS data file
3190 atoms
2 atom types
-100.1000000000 100.1000000000 xlo xhi
-13.0340632500 13.0340632500 ylo yhi
-3.6150000000 3.6150000000 zlo zhi
0.0 0.0 0.0 xy xz yz

Atoms # atomic

1 1 -0.0000002814 6.0157326132 -1.8075000000
2 1 0.5013099127 8.9803099973 -1.8075000000
3 1 1.0026201068 11.5010894113 -1.8075000000
4 1 -0.0000005628 -13.0340396411 0.0000000000
5 1 0.0000002814 -6.5170453821 -1.8075000000
6 1 0.5013104755 -4.4612839614 -1.8075000000
7 1 1.0026206696 -1.9508478955 -1.8075000000
8 1 0.0000000000 -0.5013113908 0.0000000000
9 1 1.5039308637 0.5726877658 -1.8075000000
10 1 0.5013101941 2.0310464971 0.0000000000
11 1 2.0052410578 3.1171236830 -1.8075000000
12 1 1.0026203882 4.5892599681 0.0000000000
13 1 -0.0000002814 6.0157326132 1.8075000000
14 1 2.5065512519 5.7163738252 -1.8075000000
15 1 1.5039305823 7.2962739548 0.0000000000
16 1 0.5013099127 8.9803099973 1.8075000000
17 1 3.0078614460 8.3601651962 -1.8075000000
18 1 2.0052407764 9.9413340183 0.0000000000
19 1 1.0026201068 11.5010894113 1.8075000000
20 1 -0.0000005628 -13.0340396411 3.6150000000
21 1 3.5091716401 10.9382905156 -1.8075000000
22 1 2.5065509705 12.4815758349 0.0000000000
23 1 1.5039314265 -12.0569646924 -1.8075000000
24 1 0.5013107569 -10.5399475169 0.0000000000
25 1 2.0052416206 -9.5849748835 -1.8075000000
26 1 1.0026209510 -8.0783701559 0.0000000000
27 1 0.0000002814 -6.5170453821 1.8075000000
28 1 2.5065518147 -7.1695316979 -1.8075000000
29 1 1.5039311451 -5.7768147031 0.0000000000
30 1 0.5013104755 -4.4612839614 1.8075000000
31 1 3.0078620088 -4.7877654727 -1.8075000000
32 1 2.0052413392 -3.3795762531 0.0000000000
33 1 1.0026206696 -1.9508478955 1.8075000000
34 1 0.0000000000 -0.5013113908 3.6150000000
35 1 3.5091722030 -2.3307050303 -1.8075000000
36 1 2.5065515333 -0.8833069660 0.0000000000
37 1 1.5039308637 0.5726877658 1.8075000000
38 1 0.5013101941 2.0310464971 3.6150000000
39 1 4.0104823971 0.1741276661 -1.8075000000
40 1 3.0078617274 1.6433767956 0.0000000000
41 1 2.0052410578 3.1171236830 1.8075000000
42 1 1.0026203882 4.5892599681 3.6150000000
43 1 4.5117925912 2.7089773063 -1.8075000000
44 1 3.5091719216 4.2027324911 0.0000000000
45 1 2.5065512519 5.7163738252 1.8075000000
46 1 1.5039305823 7.2962739548 3.6150000000
47 1 5.0131027853 5.2720181424 -1.8075000000
48 1 4.0104821157 6.7996887859 0.0000000000
49 1 3.0078614460 8.3601651962 1.8075000000
50 1 2.0052407764 9.9413340183 3.6150000000
51 1 5.5144129794 7.8478790699 -1.8075000000
52 1 4.5117923098 9.3892530558 0.0000000000
53 1 3.5091716401 10.9382905156 1.8075000000
54 1 2.5065509705 12.4815758349 3.6150000000
55 1 6.0157231735 10.4090406830 -1.8075000000
56 1 5.0131025039 11.9430079586 0.0000000000
57 1 6.5170333676 12.9498914694 -1.8075000000
58 1 1.5039314265 -12.0569646924 1.8075000000
59 1 0.5013107569 -10.5399475169 3.6150000000
60 1 4.0104829599 -12.5868955920 -1.8075000000
61 1 3.0078622903 -11.0864028657 0.0000000000
62 1 2.0052416206 -9.5849748835 1.8075000000
63 1 1.0026209510 -8.0783701559 3.6150000000
64 1 4.5117931540 -10.1164523963 -1.8075000000
65 1 3.5091724844 -8.6331809191 0.0000000000
66 1 2.5065518147 -7.1695316979 1.8075000000
67 1 1.5039311451 -5.7768147031 3.6150000000
68 1 5.0131033481 -7.6660356695 -1.8075000000
69 1 4.0104826785 -6.2116595181 0.0000000000
70 1 3.0078620088 -4.7877654727 1.8075000000
71 1 2.0052413392 -3.3795762531 3.6150000000
72 1 5.5144135422 -5.2198938527 -1.8075000000
73 1 4.5117928726 -3.7724576876 0.0000000000
74 1 3.5091722030 -2.3307050303 1.8075000000
75 1 2.5065515333 -0.8833069660 3.6150000000
76 1 6.0157237363 -2.7503326449 -1.8075000000
77 1 5.0131030667 -1.2895635877 0.0000000000
78 1 4.0104823971 0.1741276661 1.8075000000
79 1 3.0078617274 1.6433767956 3.6150000000
80 1 6.5170339304 -0.2518581889 -1.8075000000
81 1 5.5144132608 1.2253561714 0.0000000000
82 1 4.5117925912 2.7089773063 1.8075000000
83 1 3.5091719216 4.2027324911 3.6150000000
84 1 7.0183441245 2.2701802441 -1.8075000000
85 1 6.0157234549 3.7650767066 0.0000000000
86 1 5.0131027853 5.2720181424 1.8075000000
87 1 4.0104821157 6.7996887859 3.6150000000
88 1 7.5196543186 4.8097454969 -1.8075000000
89 1 6.5170336490 6.3217830268 0.0000000000
90 1 5.5144129794 7.8478790699 1.8075000000
91 1 4.5117923098 9.3892530558 3.6150000000
92 1 8.0209645127 7.3572405656 -1.8075000000
93 1 7.0183438431 8.8790868935 0.0000000000
94 1 6.0157231735 10.4090406830 1.8075000000
95 1 5.0131025039 11.9430079586 3.6150000000
96 1 8.5222747068 9.9015363921 -1.8075000000
97 1 7.5196540372 11.4244481301 0.0000000000
98 1 6.5170333676 12.9498914694 1.8075000000
99 1 9.0235849009 12.4372034179 -1.8075000000
100 1 4.0104829599 -12.5868955920 1.8075000000
101 1 3.0078622903 -11.0864028657 3.6150000000
102 1 5.5144138236 -11.6072952967 0.0000000000
103 1 4.5117931540 -10.1164523963 1.8075000000
104 1 3.5091724844 -8.6331809191 3.6150000000
105 1 7.0183446873 -10.6241869283 -1.8075000000
106 1 6.0157240177 -9.1398800807 0.0000000000
107 1 5.0131033481 -7.6660356695 1.8075000000
108 1 4.0104826785 -6.2116595181 3.6150000000
109 1 7.5196548814 -8.1535840060 -1.8075000000
110 1 6.5170342118 -6.6805264898 0.0000000000
111 1 5.5144135422 -5.2198938527 1.8075000000
112 1 4.5117928726 -3.7724576876 3.6150000000
113 1 8.0209650755 -5.6822928990 -1.8075000000
114 1 7.0183444059 -4.2132382446 0.0000000000
115 1 6.0157237363 -2.7503326449 1.8075000000
116 1 5.0131030667 -1.2895635877 3.6150000000
117 1 8.5222752696 -3.1998370219 -1.8075000000
118 1 7.5196546000 -1.7258243699 0.0000000000
119 1 6.5170339304 -0.2518581889 1.8075000000
120 1 5.5144132608 1.2253561714 3.6150000000
121 1 9.0235854637 -0.7011478181 -1.8075000000
122 1 8.0209647941 0.7825332032 0.0000000000
123 1 7.0183441245 2.2701802441 1.8075000000
124 1 6.0157234549 3.7650767066 3.6150000000
125 1 9.5248956578 1.8130402149 -1.8075000000
126 1 8.5222749882 3.3079590275 0.0000000000
127 1 7.5196543186 4.8097454969 1.8075000000
128 1 6.5170336490 6.3217830268 3.6150000000
129 1 10.0262058520 4.3389918015 -1.8075000000
130 1 9.0235851823 5.8442986440 0.0000000000
131 1 8.0209645127 7.3572405656 1.8075000000
132 1 7.0183438431 8.8790868935 3.6150000000
133 1 10.5275160461 6.8711423208 -1.8075000000
134 1 9.5248953764 8.3834610962 0.0000000000
135 1 8.5222747068 9.9015363921 1.8075000000
136 1 7.5196540372 11.4244481301 3.6150000000
137 1 11.0288262402 9.4037146903 -1.8075000000
138 1 10.0262055705 10.9188851798 0.0000000000
139 1 9.0235849009 12.4372034179 1.8075000000
140 1 11.5301364343 11.9329654264 -1.8075000000
141 1 5.5144138236 -11.6072952967 3.6150000000
142 1 8.0209653569 -12.1143783944 0.0000000000
143 1 7.0183446873 -10.6241869283 1.8075000000
144 1 6.0157240177 -9.1398800807 3.6150000000
145 1 9.5248962207 -11.1234082168 -1.8075000000
146 1 8.5222755510 -9.6355356686 0.0000000000
147 1 7.5196548814 -8.1535840060 1.8075000000
148 1 6.5170342118 -6.6805264898 3.6150000000
149 1 10.0262064148 -8.6411417556 -1.8075000000
150 1 9.0235857451 -7.1585613774 0.0000000000
151 1 8.0209650755 -5.6822928990 1.8075000000
152 1 7.0183444059 -4.2132382446 3.6150000000
153 1 10.5275166089 -6.1571671236 -1.8075000000
154 1 9.5248959393 -4.6765204155 0.0000000000
155 1 8.5222752696 -3.1998370219 1.8075000000
156 1 7.5196546000 -1.7258243699 3.6150000000
157 1 11.0288268030 -3.6665805196 -1.8075000000
158 1 10.0262061334 -2.1835126827 0.0000000000
159 1 9.0235854637 -0.7011478181 1.8075000000
160 1 8.0209647941 0.7825332032 3.6150000000
161 1 11.5301369971 -1.1663465871 -1.8075000000
162 1 10.5275163275 0.3223153838 0.0000000000
163 1 9.5248956578 1.8130402149 1.8075000000
164 1 8.5222749882 3.3079590275 3.6150000000
165 1 12.0314471912 1.3437976667 -1.8075000000
166 1 11.0288265216 2.8394378068 0.0000000000
167 1 10.0262058520 4.3389918015 1.8075000000
168 1 9.0235851823 5.8442986440 3.6150000000
169 1 12.5327573853 3.8619644085 -1.8075000000
170 1 11.5301367157 5.3642901899 0.0000000000
171 1 10.5275160461 6.8711423208 1.8075000000
172 1 9.5248953764 8.3834610962 3.6150000000
173 1 13.0340675794 6.3850332783 -1.8075000000
174 1 12.0314469098 7.8924168704 0.0000000000
175 1 11.0288262402 9.4037146903 1.8075000000
176 1 10.0262055705 10.9188851798 3.6150000000
177 1 13.5353777735 8.9096965680 -1.8075000000
178 1 12.5327571039 10.4199751382 0.0000000000
179 1 11.5301364343 11.9329654264 1.8075000000
180 1 14.0366879676 11.4334544414 -1.8075000000
181 1 13.0340672980 12.9448014028 0.0000000000
182 1 8.0209653569 -12.1143783944 3.6150000000
183 1 10.5275168903 -12.6152307509 0.0000000000
184 1 9.5248962207 -11.1234082168 1.8075000000
185 1 8.5222755510 -9.6355356686 3.6150000000
186 1 12.0314477540 -11.6196869628 -1.8075000000
187 1 11.0288270844 -10.1286066798 0.0000000000
188 1 10.0262064148 -8.6411417556 1.8075000000
189 1 9.0235857451 -7.1585613774 3.6150000000
190 1 12.5327579481 -9.1302452827 -1.8075000000
191 1 11.5301372785 -7.6419037230 0.0000000000
192 1 10.5275166089 -6.1571671236 1.8075000000
193 1 9.5248959393 -4.6765204155 3.6150000000
194 1 13.0340681422 -6.6390389328 -1.8075000000
195 1 12.0314474726 -5.1515868693 0.0000000000
196 1 11.0288268030 -3.6665805196 1.8075000000
197 1 10.0262061334 -2.1835126827 3.6150000000
198 1 13.5353783363 -4.1434784106 -1.8075000000
199 1 12.5327576667 -2.6545753174 0.0000000000
200 1 11.5301369971 -1.1663465871 1.8075000000
201 1 10.5275163275 0.3223153838 3.6150000000
202 1 14.0366885304 -1.6418125006 -1.8075000000
203 1 13.0340678608 -0.1495244410 0.0000000000
204 1 12.0314471912 1.3437976667 1.8075000000
205 1 11.0288265216 2.8394378068 3.6150000000
206 1 14.5379987245 0.8663216300 -1.8075000000
207 1 13.5353780549 2.3630146391 0.0000000000
208 1 12.5327573853 3.8619644085 1.8075000000
209 1 11.5301367157 5.3642901899 3.6150000000
210 1 15.0393089186 3.3800013920 -1.8075000000
211 1 14.0366882490 4.8811233364 0.0000000000
212 1 13.0340675794 6.3850332783 1.8075000000
213 1 12.0314469098 7.8924168704 3.6150000000
214 1 15.5406191127 5.8974851707 -1.8075000000
215 1 14.5379984431 7.4022639195 0.0000000000
216 1 13.5353777735 8.9096965680 1.8075000000
217 1 12.5327571039 10.4199751382 3.6150000000
218 1 16.0419293068 8.4168064508 -1.8075000000
219 1 15.0393086372 9.9240747176 0.0000000000
220 1 14.0366879676 11.4334544414 1.8075000000
221 1 13.0340672980 12.9448014028 3.6150000000
222 1 16.5432395009 10.9363043316 -1.8075000000
223 1 15.5406188313 12.4449251411 0.0000000000
224 1 10.5275168903 -12.6152307509 3.6150000000
225 1 12.0314477540 -11.6196869628 1.8075000000
226 1 11.0288270844 -10.1286066798 3.6150000000
227 1 14.5379992873 -12.1151534688 -1.8075000000
228 1 13.5353786177 -10.6215341137 0.0000000000
229 1 12.5327579481 -9.1302452827 1.8075000000
230 1 11.5301372785 -7.6419037230 3.6150000000
231 1 15.0393094814 -9.6210704165 -1.8075000000
232 1 14.0366888118 -8.1289473551 0.0000000000
233 1 13.0340681422 -6.6390389328 1.8075000000
234 1 12.0314474726 -5.1515868693 3.6150000000
235 1 15.5406196755 -7.1254229853 -1.8075000000
236 1 14.5379990059 -5.6336783123 0.0000000000
237 1 13.5353783363 -4.1434784106 1.8075000000
238 1 12.5327576667 -2.6545753174 3.6150000000
239 1 16.0419298697 -4.6267337214 -1.8075000000
240 1 15.0393092000 -3.1340101502 0.0000000000
241 1 14.0366885304 -1.6418125006 1.8075000000
242 1 13.0340678608 -0.1495244410 3.6150000000
243 1 16.5432400638 -2.1239697655 -1.8075000000
244 1 15.5406193941 -0.6290842969 0.0000000000
245 1 14.5379987245 0.8663216300 1.8075000000
246 1 13.5353780549 2.3630146391 3.6150000000
247 1 17.0445502579 0.3831599845 -1.8075000000
248 1 16.0419295882 1.8809156120 0.0000000000
249 1 15.0393089186 3.3800013920 1.8075000000
250 1 14.0366882490 4.8811233364 3.6150000000
251 1 17.5458604520 2.8941982891 -1.8075000000
252 1 16.5432397824 4.3949609934 0.0000000000
253 1 15.5406191127 5.8974851707 1.8075000000
254 1 14.5379984431 7.4022639195 3.6150000000
255 1 18.0471706461 5.4081586186 -1.8075000000
256 1 17.0445499765 6.9115776778 0.0000000000
257 1 16.0419293068 8.4168064508 1.8075000000
258 1 15.0393086372 9.9240747176 3.6150000000
259 1 18.5484808402 7.9238457440 -1.8075000000
260 1 17.5458601706 9.4292829934 0.0000000000
261 1 16.5432395009 10.9363043316 1.8075000000
262 1 15.5406188313 12.4449251411 3.6150000000
263 1 19.0497910343 10.4401559177 -1.8075000000
264 1 18.0471703647 11.9469097701 0.0000000000
265 1 19.5511012284 12.9562628298 -1.8075000000
266 1 14.5379992873 -12.1151534688 1.8075000000
267 1 13.5353786177 -10.6215341137 3.6150000000
268 1 17.0445508207 -12.6106576981 -1.8075000000
269 1 16.0419301511 -11.1150816276 0.0000000000
270 1 15.0393094814 -9.6210704165 1.8075000000
271 1 14.0366888118 -8.1289473551 3.6150000000
272 1 17.5458610148 -10.1134521268 -1.8075000000
273 1 16.5432403452 -8.6187205145 0.0000000000
274 1 15.5406196755 -7.1254229853 1.8075000000
275 1 14.5379990059 -5.6336783123 3.6150000000
276 1 18.0471712089 -7.6149289342 -1.8075000000
277 1 17.0445505393 -6.1203257531 0.0000000000
278 1 16.0419298697 -4.6267337214 1.8075000000
279 1 15.0393092000 -3.1340101502 3.6150000000
280 1 18.5484814030 -5.1141964791 -1.8075000000
281 1 17.5458607334 -3.6188874886 0.0000000000
282 1 16.5432400638 -2.1239697655 1.8075000000
283 1 15.5406193941 -0.6290842969 3.6150000000
284 1 19.0497915971 -2.6106239683 -1.8075000000
285 1 18.0471709275 -1.1138643403 0.0000000000
286 1 17.0445502579 0.3831599845 1.8075000000
287 1 16.0419295882 1.8809156120 3.6150000000
288 1 19.5511017912 -0.1040012181 -1.8075000000
289 1 18.5484811216 1.3946957141 0.0000000000
290 1 17.5458604520 2.8941982891 1.8075000000
291 1 16.5432397824 4.3949609934 3.6150000000
292 1 20.0524119853 2.4054390377 -1.8075000000
293 1 19.0497913157 3.9062293681 0.0000000000
294 1 18.0471706461 5.4081586186 1.8075000000
295 1 17.0445499765 6.9115776778 3.6150000000
296 1 20.5537221794 4.9171240805 -1.8075000000
297 1 19.5511015098 6.4198617357 0.0000000000
298 1 18.5484808402 7.9238457440 1.8075000000
299 1 17.5458601706 9.4292829934 3.6150000000
300 1 21.0550323735 7.4303125356 -1.8075000000
301 1 20.0524117039 8.9346479354 0.0000000000
302 1 19.0497910343 10.4401559177 1.8075000000
303 1 18.0471703647 11.9469097701 3.6150000000
304 1 21.5563425676 9.9442673915 -1.8075000000
305 1 20.5537218980 11.4497688158 0.0000000000
306 1 19.5511012284 12.9562628298 1.8075000000
307 1 22.0576527617 12.4583788780 -1.8075000000
308 1 17.0445508207 -12.6106576981 1.8075000000
309 1 16.0419301511 -11.1150816276 3.6150000000
310 1 18.5484816844 -11.6094478856 0.0000000000
311 1 17.5458610148 -10.1134521268 1.8075000000
312 1 16.5432403452 -8.6187205145 3.6150000000
313 1 20.0524125481 -10.6071545327 -1.8075000000
314 1 19.0497918785 -9.1105577093 0.0000000000
315 1 18.0471712089 -7.6149289342 1.8075000000
316 1 17.0445505393 -6.1203257531 3.6150000000
317 1 20.5537227422 -8.1066900416 -1.8075000000
318 1 19.5511020726 -6.6101002886 0.0000000000
319 1 18.5484814030 -5.1141964791 1.8075000000
320 1 17.5458607334 -3.6188874886 3.6150000000
321 1 21.0550329363 -5.6045736415 -1.8075000000
322 1 20.0524122667 -4.1074538020 0.0000000000
323 1 19.0497915971 -2.6106239683 1.8075000000
324 1 18.0471709275 -1.1138643403 3.6150000000
325 1 21.5563431304 -3.1004059218 -1.8075000000
326 1 20.5537224608 -1.6022708657 0.0000000000
327 1 19.5511017912 -0.1040012181 1.8075000000
328 1 18.5484811216 1.3946957141 3.6150000000
329 1 22.0576533245 -0.5940385273 -1.8075000000
330 1 21.0550326549 0.9054492697 0.0000000000
331 1 20.0524119853 2.4054390377 1.8075000000
332 1 19.0497913157 3.9062293681 3.6150000000
333 1 22.5589635186 1.9144069191 -1.8075000000
334 1 21.5563428490 3.4153888196 0.0000000000
335 1 20.5537221794 4.9171240805 1.8075000000
336 1 19.5511015098 6.4198617357 3.6150000000
337 1 23.0602737128 4.4245884255 -1.8075000000
338 1 22.0576530431 5.9270158257 0.0000000000
339 1 21.0550323735 7.4303125356 1.8075000000
340 1 20.0524117039 8.9346479354 3.6150000000
341 1 23.5615839069 6.9360362640 -1.8075000000
342 1 22.5589632372 8.4397188124 0.0000000000
343 1 21.5563425676 9.9442673915 1.8075000000
344 1 20.5537218980 11.4497688158 3.6150000000
345 1 24.0628941010 9.4482539091 -1.8075000000
346 1 23.0602734314 10.9529260842 0.0000000000
347 1 22.0576527617 12.4583788780 1.8075000000
348 1 24.5642042951 11.9607980597 -1.8075000000
349 1 18.5484816844 -11.6094478856 3.6150000000
350 1 21.0550332177 -12.1046281165 0.0000000000
351 1 20.0524125481 -10.6071545327 1.8075000000
352 1 19.0497918785 -9.1105577093 3.6150000000
353 1 22.5589640815 -11.1019522006 -1.8075000000
354 1 21.5563434118 -9.6039829560 0.0000000000
355 1 20.5537227422 -8.1066900416 1.8075000000
356 1 19.5511020726 -6.6101002886 3.6150000000
357 1 23.0602742756 -8.6001313945 -1.8075000000
358 1 22.0576536059 -7.1021121294 0.0000000000
359 1 21.0550329363 -5.6045736415 1.8075000000
360 1 20.0524122667 -4.1074538020 3.6150000000
361 1 23.5615844697 -6.0970460654 -1.8075000000
362 1 22.5589638001 -4.5986173615 0.0000000000
363 1 21.5563431304 -3.1004059218 1.8075000000
364 1 20.5537224608 -1.6022708657 3.6150000000
365 1 24.0628946638 -3.5924345811 -1.8075000000
366 1 23.0602739942 -2.0932699012 0.0000000000
367 1 22.0576533245 -0.5940385273 1.8075000000
368 1 21.0550326549 0.9054492697 3.6150000000
369 1 24.5642048579 -1.0861918548 -1.8075000000
370 1 23.5615841883 0.4139468794 0.0000000000
371 1 22.5589635186 1.9144069191 1.8075000000
372 1 21.5563428490 3.4153888196 3.6150000000
373 1 25.0655150520 1.4216172521 -1.8075000000
374 1 24.0628943824 2.9228480798 0.0000000000
375 1 23.0602737128 4.4245884255 1.8075000000
376 1 22.0576530431 5.9270158257 3.6150000000
377 1 25.5668252461 3.9307826353 -1.8075000000
378 1 24.5642045765 5.4331019284 0.0000000000
379 1 23.5615839069 6.9360362640 1.8075000000
380 1 22.5589632372 8.4397188124 3.6150000000
381 1 26.0681354402 6.4410001258 -1.8075000000
382 1 25.0655147706 7.9443060049 0.0000000000
383 1 24.0628941010 9.4482539091 1.8075000000
384 1 23.0602734314 10.9529260842 3.6150000000
385 1 26.5694456343 8.9519312258 -1.8075000000
386 1 25.5668249647 10.4560604091 0.0000000000
387 1 24.5642042951 11.9607980597 1.8075000000
388 1 27.0707558284 11.4632548994 -1.8075000000
389 1 26.0681351588 12.9680203690 0.0000000000
390 1 21.0550332177 -12.1046281165 3.6150000000
391 1 23.5615847511 -12.6005477700 0.0000000000
392 1 22.5589640815 -11.1019522006 1.8075000000
393 1 21.5563434118 -9.6039829560 3.6150000000
394 1 25.0655156148 -11.5976521047 -1.8075000000
395 1 24.0628949452 -10.0986484871 0.0000000000
396 1 23.0602742756 -8.6001313945 1.8075000000
397 1 22.0576536059 -7.1021121294 3.6150000000
398 1 25.5668258089 -9.0948556414 -1.8075000000
399 1 24.5642051393 -7.5957774129 0.0000000000
400 1 23.5615844697 -6.0970460654 1.8075000000
401 1 22.5589638001 -4.5986173615 3.6150000000
402 1 26.0681360030 -6.5910718338 -1.8075000000
403 1 25.0655153334 -5.0916705612 0.0000000000
404 1 24.0628946638 -3.5924345811 1.8075000000
405 1 23.0602739942 -2.0932699012 3.6150000000
406 1 26.5694461971 -4.0861239361 -1.8075000000
407 1 25.5668255275 -2.5861731377 0.0000000000
408 1 24.5642048579 -1.0861918548 1.8075000000
409 1 23.5615841883 0.4139468794 3.6150000000
410 1 27.0707563912 -1.5799365372 -1.8075000000
411 1 26.0681357216 -0.0792650165 0.0000000000
412 1 25.0655150520 1.4216172521 1.8075000000
413 1 24.0628943824 2.9228480798 3.6150000000
414 1 27.5720665853 0.9274554035 -1.8075000000
415 1 26.5694459157 2.4289430422 0.0000000000
416 1 25.5668252461 3.9307826353 1.8075000000
417 1 24.5642045765 5.4331019284 3.6150000000
418 1 28.0733767794 3.4359192742 -1.8075000000
419 1 27.0707561098 4.9382388568 0.0000000000
420 1 26.0681354402 6.4410001258 1.8075000000
421 1 25.0655147706 7.9443060049 3.6150000000
422 1 28.5746869735 5.9452538247 -1.8075000000
423 1 27.5720663039 7.4483528517 0.0000000000
424 1 26.5694456343 8.9519312258 1.8075000000
425 1 25.5668249647 10.4560604091 3.6150000000
426 1 29.0759971676 8.4552251270 -1.8075000000
427 1 28.0733764980 9.9590033479 0.0000000000
428 1 27.0707558284 11.4632548994 1.8075000000
429 1 26.0681351588 12.9680203690 3.6150000000
430 1 29.5773073618 10.9656001338 -1.8075000000
431 1 28.5746866921 12.4699326078 0.0000000000
432 1 23.5615847511 -12.6005477700 3.6150000000
433 1 25.0655156148 -11.5976521047 1.8075000000
434 1 24.0628949452 -10.0986484871 3.6150000000
435 1 27.5720671481 -12.0940957485 -1.8075000000
436 1 26.5694464785 -10.5942962389 0.0000000000
437 1 25.5668258089 -9.0948556414 1.8075000000
438 1 24.5642051393 -7.5957774129 3.6150000000
439 1 28.0733773422 -9.5905795766 -1.8075000000
440 1 27.0707566726 -8.0906973410 0.0000000000
441 1 26.0681360030 -6.5910718338 1.8075000000
442 1 25.0655153334 -5.0916705612 3.6150000000
443 1 28.5746875363 -7.0862791849 -1.8075000000
444 1 27.5720668667 -5.5861376471 0.0000000000
445 1 26.5694461971 -4.0861239361 1.8075000000
446 1 25.5668255275 -2.5861731377 3.6150000000
447 1 29.0759977305 -4.5810718288 -1.8075000000
448 1 28.0733770608 -3.0805096395 0.0000000000
449 1 27.0707563912 -1.5799365372 1.8075000000
450 1 26.0681357216 -0.0792650165 3.6150000000
451 1 29.5773079246 -2.0749025092 -1.8075000000
452 1 28.5746872549 -0.5737941680 0.0000000000
453 1 27.5720665853 0.9274554035 1.8075000000
454 1 26.5694459157 2.4289430422 3.6150000000
455 1 30.0786181187 0.4322099930 -1.8075000000
456 1 29.0759974491 1.9339406642 0.0000000000
457 1 28.0733767794 3.4359192742 1.8075000000
458 1 27.0707561098 4.9382388568 3.6150000000
459 1 30.5799283128 2.9401798706 -1.8075000000
460 1 29.5773076432 4.4425558745 0.0000000000
461 1 28.5746869735 5.9452538247 1.8075000000
462 1 27.5720663039 7.4483528517 3.6150000000
463 1 31.0812385069 5.4488711845 -1.8075000000
464 1 30.0786178373 6.9518676127 0.0000000000
465 1 29.0759971676 8.4552251270 1.8075000000
466 1 28.0733764980 9.9590033479 3.6150000000
467 1 31.5825487010 7.9581199257 -1.8075000000
468 1 30.5799280314 9.4616755453 0.0000000000
469 1 29.5773073618 10.9656001338 1.8075000000
470 1 28.5746866921 12.4699326078 3.6150000000
471 1 32.0838588951 10.4677558981 -1.8075000000
472 1 31.0812382255 11.9717873220 0.0000000000
473 1 32.5851690892 12.9776203545 -1.8075000000
474 1 27.5720671481 -12.0940957485 1.8075000000
475 1 26.5694464785 -10.5942962389 3.6150000000
476 1 30.0786186815 -12.5911551048 -1.8075000000
477 1 29.0759980119 -11.0907320183 0.0000000000
478 1 28.0733773422 -9.5905795766 1.8075000000
479 1 27.0707566726 -8.0906973410 3.6150000000
480 1 30.5799288756 -10.0870962639 -1.8075000000
481 1 29.5773082060 -8.5865905751 0.0000000000
482 1 28.5746875363 -7.0862791849 1.8075000000
483 1 27.5720668667 -5.5861376471 3.6150000000
484 1 31.0812390697 -7.5824051377 -1.8075000000
485 1 30.0786184001 -6.0816882671 0.0000000000
486 1 29.0759977305 -4.5810718288 1.8075000000
487 1 28.0733770608 -3.0805096395 3.6150000000
488 1 31.5825492638 -5.0769943566 -1.8075000000
489 1 30.5799285942 -3.5759485937 0.0000000000
490 1 29.5773079246 -2.0749025092 1.8075000000
491 1 28.5746872549 -0.5737941680 3.6150000000
492 1 32.0838594579 -2.5708231286 -1.8075000000
493 1 31.0812387883 -1.0693547693 0.0000000000
494 1 30.0786181187 0.4322099930 1.8075000000
495 1 29.0759974491 1.9339406642 3.6150000000
496 1 32.5851696520 -0.0639012934 -1.8075000000
497 1 31.5825489824 1.4380503702 0.0000000000
498 1 30.5799283128 2.9401798706 1.8075000000
499 1 29.5773076432 4.4425558745 3.6150000000
500 1 33.0864798461 2.4437143646 -1.8075000000
501 1 32.0838591765 3.9461737400 0.0000000000
502 1 31.0812385069 5.4488711845 1.8075000000
503 1 30.0786178373 6.9518676127 3.6150000000
504 1 33.5877900402 4.9519302149 -1.8075000000
505 1 32.5851693706 6.4548877362 0.0000000000
506 1 31.5825487010 7.9581199257 1.8075000000
507 1 30.5799280314 9.4616755453 3.6150000000
508 1 34.0891002343 7.4606295848 -1.8075000000
509 1 33.0864795647 8.9640482858 0.0000000000
510 1 32.0838588951 10.4677558981 1.8075000000
511 1 31.0812382255 11.9717873220 3.6150000000
512 1 34.5904104284 9.9696871679 -1.8075000000
513 1 33.5877897588 11.4735114419 0.0000000000
514 1 32.5851690892 12.9776203545 1.8075000000
515 1 35.0917206225 12.4789814644 -1.8075000000
516 1 30.0786186815 -12.5911551048 1.8075000000
517 1 29.0759980119 -11.0907320183 3.6150000000
518 1 31.5825495452 -11.5878077294 0.0000000000
519 1 30.5799288756 -10.0870962639 1.8075000000
520 1 29.5773082060 -8.5865905751 3.6150000000
521 1 33.0864804089 -10.5842512761 -1.8075000000
522 1 32.0838597393 -9.0832532229 0.0000000000
523 1 31.0812390697 -7.5824051377 1.8075000000
524 1 30.0786184001 -6.0816882671 3.6150000000
525 1 33.5877906030 -8.0792587153 -1.8075000000
526 1 32.5851699334 -6.5780864936 0.0000000000
527 1 31.5825492638 -5.0769943566 1.8075000000
528 1 30.5799285942 -3.5759485937 3.6150000000
529 1 34.0891007971 -5.5736859954 -1.8075000000
530 1 33.0864801275 -4.0722519060 0.0000000000
531 1 32.0838594579 -2.5708231286 1.8075000000
532 1 31.0812387883 -1.0693547693 3.6150000000
533 1 34.5904109912 -3.0675023647 -1.8075000000
534 1 33.5877903216 -1.5657352430 0.0000000000
535 1 32.5851696520 -0.0639012934 1.8075000000
536 1 31.5825489824 1.4380503702 3.6150000000
537 1 35.0917211853 -0.5607126482 -1.8075000000
538 1 34.0891005157 0.9414360301 0.0000000000
539 1 33.0864798461 2.4437143646 1.8075000000
540 1 32.0838591765 3.9461737400 3.6150000000
541 1 35.5930313795 1.9466448122 -1.8075000000
542 1 34.5904107098 3.4491982817 0.0000000000
543 1 33.5877900402 4.9519302149 1.8075000000
544 1 32.5851693706 6.4548877362 3.6150000000
545 1 36.0943415736 4.4545043472 -1.8075000000
546 1 35.0917209039 5.9574614464 0.0000000000
547 1 34.0891002343 7.4606295848 1.8075000000
548 1 33.0864795647 8.9640482858 3.6150000000
549 1 36.5956517677 6.9627817676 -1.8075000000
550 1 35.5930310980 8.4661206865 0.0000000000
551 1 34.5904104284 9.9696871679 1.8075000000
552 1 33.5877897588 11.4735114419 3.6150000000
553 1 37.0969619618 9.4713839636 -1.8075000000
554 1 36.0943412922 10.9750676975 0.0000000000
555 1 35.0917206225 12.4789814644 1.8075000000
556 1 37.5982721559 11.9802176681 -1.8075000000
557 1 31.5825495452 -11.5878077294 3.6150000000
558 1 34.0891010785 -12.0854089725 0.0000000000
559 1 33.0864804089 -10.5842512761 1.8075000000
560 1 32.0838597393 -9.0832532229 3.6150000000
561 1 35.5930319423 -11.0819272385 -1.8075000000
562 1 34.5904112726 -9.5805340885 0.0000000000
563 1 33.5877906030 -8.0792587153 1.8075000000
564 1 32.5851699334 -6.5780864936 3.6150000000
565 1 36.0943421364 -8.5766980493 -1.8075000000
566 1 35.0917214667 -7.0751596566 0.0000000000
567 1 34.0891007971 -5.5736859954 1.8075000000
568 1 33.0864801275 -4.0722519060 3.6150000000
569 1 36.5956523305 -6.0709946143 -1.8075000000
570 1 35.5930316609 -4.5692444082 0.0000000000
571 1 34.5904109912 -3.0675023647 1.8075000000
572 1 33.5877903216 -1.5657352430 3.6150000000
573 1 37.0969625246 -3.5647933918 -1.8075000000
574 1 36.0943418550 -2.0627764755 0.0000000000
575 1 35.0917211853 -0.5607126482 1.8075000000
576 1 34.0891005157 0.9414360301 3.6150000000
577 1 37.5982727187 -1.0580963759 -1.8075000000
578 1 36.5956520491 0.4442262527 0.0000000000
579 1 35.5930313795 1.9466448122 1.8075000000
580 1 34.5904107098 3.4491982817 3.6150000000
581 1 38.0995829128 1.4490700777 -1.8075000000
582 1 37.0969622432 2.9517194612 0.0000000000
583 1 36.0943415736 4.4545043472 1.8075000000
584 1 35.0917209039 5.9574614464 3.6150000000
585 1 38.6008931069 3.9566591337 -1.8075000000
586 1 37.5982724373 5.4596385649 0.0000000000
587 1 36.5956517677 6.9627817676 1.8075000000
588 1 35.5930310980 8.4661206865 3.6150000000
589 1 39.1022033010 6.4646092054 -1.8075000000
590 1 38.0995826314 7.9679063650 0.0000000000
591 1 37.0969619618 9.4713839636 1.8075000000
592 1 36.0943412922 10.9750676975 3.6150000000
593 1 39.6035134951 8.9728504326 -1.8075000000
594 1 38.6008928255 10.4764408099 0.0000000000
595 1 37.5982721559 11.9802176681 1.8075000000
596 1 40.1048236892 11.4813108737 -1.8075000000
597 1 39.1022030196 12.9851617277 0.0000000000
598 1 34.0891010785 -12.0854089725 3.6150000000
599 1 36.5956526119 -12.5834462891 0.0000000000
600 1 35.5930319423 -11.0819272385 1.8075000000
601 1 34.5904112726 -9.5805340885 3.6150000000
602 1 38.0995834756 -11.5800334824 -1.8075000000
603 1 37.0969628060 -10.0783188014 0.0000000000
604 1 36.0943421364 -8.5766980493 1.8075000000
605 1 35.0917214667 -7.0751596566 3.6150000000
606 1 38.6008936697 -9.0746156489 -1.8075000000
607 1 37.5982730001 -7.5727786457 0.0000000000
608 1 36.5956523305 -6.0709946143 1.8075000000
609 1 35.5930316609 -4.5692444082 3.6150000000
610 1 39.1022038638 -6.5688053652 -1.8075000000
611 1 38.0995831942 -5.0667946604 0.0000000000
612 1 37.0969625246 -3.5647933918 1.8075000000
613 1 36.0943418550 -2.0627764755 3.6150000000
614 1 39.6035140579 -4.0625843507 -1.8075000000
615 1 38.6008933883 -2.5603569888 0.0000000000
616 1 37.5982727187 -1.0580963759 1.8075000000
617 1 36.5956520491 0.4442262527 3.6150000000
618 1 40.1048242520 -1.5559530067 -1.8075000000
619 1 39.1022035824 -0.0534774255 0.0000000000
620 1 38.0995829128 1.4490700777 1.8075000000
621 1 37.0969622432 2.9517194612 3.6150000000
622 1 40.6061344461 0.9510702617 -1.8075000000
623 1 39.6035137765 2.4538126422 0.0000000000
624 1 38.6008931069 3.9566591337 1.8075000000
625 1 37.5982724373 5.4596385649 3.6150000000
626 1 41.1074446402 3.4584515350 -1.8075000000
627 1 40.1048239706 4.9614662090 0.0000000000
628 1 39.1022033010 6.4646092054 1.8075000000
629 1 38.0995826314 7.9679063650 3.6150000000
630 1 41.6087548343 5.9661451719 -1.8075000000
631 1 40.6061341647 7.4694257618 0.0000000000
632 1 39.6035134951 8.9728504326 1.8075000000
633 1 38.6008928255 10.4764408099 3.6150000000
634 1 42.1100650284 8.4740982399 -1.8075000000
635 1 41.1074443588 9.9776286559 0.0000000000
636 1 40.1048236892 11.4813108737 1.8075000000
637 1 39.1022030196 12.9851617277 3.6150000000
638 1 42.6113752226 10.9822549156 -1.8075000000
639 1 41.6087545529 12.4860120094 0.0000000000