#LAMMPS data file
3190 atoms
2 atom types
-125.2250000000 125.2250000000 xlo xhi
-13.0340632500 13.0340632500 ylo yhi
-3.6150000000 3.6150000000 zlo zhi
0.0 0.0 0.0 xy xz yz

Atoms # atomic

1 1 -98.1365172010 -11.6431633094 -3.3863555747
2 1 0.7531684024 11.0886544845 -3.3673447940
3 1 -107.1594858259 -12.1446197145 2.0361446417
4 1 -91.6199815765 -11.6430885049 2.0361433439
5 1 1.5215833895 0.5714691079 -3.3725228869
6 1 -82.5972727049 -11.1417778602 -3.3863593427
7 1 -39.4188644013 -11.6299489787 2.0361306104
8 1 0.9227273687 4.6352151525 -1.5788657643
9 1 -94.1263007756 -12.1444249864 2.0361438817
10 1 -81.0930975923 -12.1443794271 2.0361400562
11 1 -39.4188644013 -11.6299489787 2.0361306104
12 1 -77.5850753127 -10.1392677346 -3.3863613118
13 1 -55.0128453273 -12.1431731934 2.0361313577
14 1 -103.6505710818 -10.1393123877 -3.3863552324
15 1 -116.6842318302 -10.1402235679 -3.3863557544
16 1 2.0606525424 12.3452611186 -1.5788662244
17 1 -77.5850753127 -10.1392677346 -3.3863613118
18 1 -51.5058815711 -10.1398808498 -3.3863692203
19 1 -64.5515793439 -10.1399576068 -3.3863662295
20 1 -115.1817852375 -11.1425978835 2.0361443196
21 1 -90.6175588561 -10.1391323365 -3.3863567308
22 1 -106.1569961415 -10.6406778187 -3.3863553702
23 1 -89.1136962879 -11.1417612790 2.0361427733
24 1 -49.9927284140 -11.1402570666 2.0361307836
25 1 -54.0145012627 -10.6408850837 -3.3863687630
26 1 -102.1467276611 -11.1419122588 2.0361446706
27 1 -80.0911318502 -10.6405093223 -3.3863603736
28 1 -76.0807451703 -11.1418868479 2.0361380550
29 1 -63.0450095508 -11.1422223936 2.0361332331
30 1 -69.5636726107 -11.1420728000 -3.3863645701
31 1 3.9577833396 0.0459983759 -3.3884115319
32 1 2.9630249148 1.5810588343 -1.5788653275
33 1 1.9379180486 3.1281559480 0.2214503750
34 1 0.9273028109 4.6674817555 2.0361339962
35 1 4.4387137062 2.5839527897 -3.3896074260
36 1 3.4492758441 4.0996026544 -1.5788652681
37 1 2.4934066343 5.6259000273 0.2087185995
38 1 1.6035207701 7.1095620909 2.0361340429
39 1 4.9692639382 5.0973639700 -3.3827088690
40 1 3.9833763425 6.6242847942 -1.5788653201
41 1 3.0547824751 8.1475177333 0.2183638607
42 1 2.0108665421 9.7285867959 2.0361340150
43 1 5.4911224216 7.6216740120 -3.3819719735
44 1 4.4584026916 9.1710293766 -1.5788653335
45 1 3.3263914680 10.7279092245 0.2225521353
46 1 2.0306826581 12.3645886267 2.0361337690
47 1 5.8693294694 10.1641163175 -3.3886103035
48 1 4.7929412815 11.6920462705 -1.5788654879
49 1 6.3581045676 12.6448607316 -3.3866771331
50 1 0.3981627947 -12.5316258777 0.1739426608
51 1 0.8142618545 -11.0788497134 2.0361332081
52 1 3.7865282798 -12.9095876125 -3.3896355155
53 1 3.0997678502 -11.4194752577 -1.5788659714
54 1 2.0487337196 -9.9473172590 0.2451960246
55 1 0.7989638961 -8.5388911721 2.0361331528
56 1 4.4992776018 -10.4000321108 -3.3816536502
57 1 3.3522630130 -8.8844824467 -1.5788660755
58 1 2.1730630777 -7.4207675619 0.2294124834
59 1 1.0194694592 -6.0064600050 2.0361334399
60 1 4.7807689101 -7.8745724359 -3.3819757547
61 1 3.6790937584 -6.3984744317 -1.5788658764
62 1 2.6603901527 -4.9566362348 0.2200721971
63 1 1.7679200547 -3.5130730080 2.0361340273
64 1 5.2466823355 -5.4006486538 -3.3844652872
65 1 4.2708227765 -3.9369830255 -1.5788654256
66 1 3.3430262642 -2.4786598536 0.2241470484
67 1 2.4410014480 -0.9952414591 2.0361345700
68 1 5.8553789854 -2.9298596416 -3.3859040693
69 1 4.9159246922 -1.4501617670 -1.5788649733
70 1 3.9577834513 0.0459982909 0.2306813762
71 1 2.9621327458 1.5710622539 2.0361346737
72 1 6.4347131265 -0.4294121457 -3.3868647565
73 1 5.4433014067 1.0723756299 -1.5788647553
74 1 4.4387137670 2.5839528389 0.2318774607
75 1 3.4354624811 4.1075739400 2.0361348021
76 1 6.9404546388 2.0860244141 -3.3870962656
77 1 5.9471496459 3.5865706224 -1.5788646458
78 1 4.9692638841 5.0973640549 0.2249789735
79 1 4.0257920481 6.6104086457 2.0361349341
80 1 7.4584780930 4.5955878785 -3.3853471209
81 1 6.4702640756 6.1034089611 -1.5788645603
82 1 5.4911225688 7.6216739743 0.2242422947
83 1 4.4521003241 9.1600877994 2.0361348678
84 1 7.9617711363 7.1143905385 -3.3849957351
85 1 6.9377587790 8.6365913719 -1.5788647010
86 1 5.8693295238 10.1641162473 0.2308801781
87 1 4.7869098550 11.6862419484 2.0361346652
88 1 8.3941309761 9.6404263026 -3.3871888544
89 1 7.3541983186 11.1511107354 -1.5788648321
90 1 6.3581045020 12.6448606393 0.2289468555
91 1 8.8861771425 12.1380486846 -3.3861363082
92 1 3.7865280800 -12.9095876594 0.2319040929
93 1 3.1199432036 -11.4069800711 2.0361342084
94 1 5.4743468803 -11.9321996681 -1.5788653072
95 1 4.4992774796 -10.4000321744 0.2239223774
96 1 3.3761632163 -8.8715081202 2.0361337057
97 1 6.9456090182 -10.9160940084 -3.3853371342
98 1 5.8865001565 -9.3870062521 -1.5788653822
99 1 4.7807690007 -7.8745723800 0.2242443092
100 1 3.6800097152 -6.3889891490 2.0361340252
101 1 7.3306761015 -8.3891252652 -3.3867402738
102 1 6.2724826580 -6.8833563015 -1.5788652938
103 1 5.2466822785 -5.4006485243 0.2267346167
104 1 4.2831214389 -3.9367012391 2.0361346399
105 1 7.8016736244 -5.8971417031 -3.3866327285
106 1 6.8139136834 -4.4083957933 -1.5788647449
107 1 5.8553790194 -2.9298596273 0.2281743132
108 1 4.9098987681 -1.4513767089 2.0361349966
109 1 8.3678780512 -3.4143799064 -3.3864392951
110 1 7.4049530474 -1.9233006220 -1.5788643886
111 1 6.4347131349 -0.4294121126 0.2291355175
112 1 5.4459510037 1.0720651403 2.0361352123
113 1 8.9257065732 -0.9165329458 -3.3864697044
114 1 7.9374846686 0.5842587889 -1.5788641410
115 1 6.9404545876 2.0860243323 0.2293674979
116 1 5.9429818223 3.5917439627 2.0361353191
117 1 9.4412847149 1.5917536118 -3.3865223029
118 1 8.4473664360 3.0928980164 -1.5788640492
119 1 7.4584780469 4.5955878662 0.2276185987
120 1 6.4824483341 6.1019481686 2.0361353918
121 1 9.9532513036 4.0998978948 -3.3861708560
122 1 8.9592136365 5.6046272823 -1.5788640084
123 1 7.9617711224 7.1143905099 0.2272670149
124 1 6.9343983433 8.6338909705 2.0361353006
125 1 10.4496739386 6.6143904658 -3.3860612468
126 1 9.4322826827 8.1263418262 -1.5788640754
127 1 8.3941309668 9.6404262528 0.2294599084
128 1 7.3544397990 11.1518455012 2.0361351325
129 1 10.9100761287 9.1317422027 -3.3866342543
130 1 9.8871372054 10.6380980052 -1.5788642031
131 1 8.8861771714 12.1380487363 0.2284073053
132 1 11.4010851827 11.6356484664 -3.3862566524
133 1 5.4813543658 -11.9333601531 2.0361346784
134 1 7.9264880984 -12.4319951913 -1.5788647363
135 1 6.9456090490 -10.9160939829 0.2276070887
136 1 5.8875504507 -9.3906571804 2.0361345951
137 1 9.4194793839 -11.4217967756 -3.3859475010
138 1 8.3903290617 -9.9047065300 -1.5788647205
139 1 7.3306761880 -8.3891251933 0.2290102803
140 1 6.2680356244 -6.8851454964 2.0361347781
141 1 9.8583717918 -8.9023659520 -3.3864905164
142 1 8.8209213378 -7.3953526561 -1.5788645387
143 1 7.8016736233 -5.8971417857 0.2289033842
144 1 6.8160441878 -4.4101854763 2.0361352421
145 1 10.3380595322 -6.4028921648 -3.3863594649
146 1 9.3426987448 -4.9065681375 -1.5788641627
147 1 8.3678780930 -3.4143798658 0.2287107765
148 1 7.4027765270 -1.9237863831 2.0361355767
149 1 10.8795996140 -3.9114843411 -3.3863279484
150 1 9.9032618731 -2.4148671542 -1.5788638764
151 1 8.9257065521 -0.9165329659 0.2287417311
152 1 7.9388952397 0.5838387439 2.0361358399
153 1 11.4227575372 -1.4122799964 -3.3863502452
154 1 10.4346995418 0.0894579159 -1.5788635592
155 1 9.4412846532 1.5917536308 0.2287947605
156 1 8.4457165944 3.0941059999 2.0361359955
157 1 11.9411031538 1.0940868634 -3.3863844245
158 1 10.9468483962 2.5968838284 -1.5788634807
159 1 9.9532512440 4.0998978282 0.2284434810
160 1 8.9622829943 5.6041701378 2.0361360574
161 1 12.4502644759 3.6022225993 -3.3863326281
162 1 11.4525325431 5.1071159079 -1.5788634473
163 1 10.4496739452 6.6143903989 0.2283336853
164 1 9.4308383941 8.1255894773 2.0361359225
165 1 12.9453218606 6.1144353473 -3.3862970868
166 1 11.9328036919 7.6227949784 -1.5788634625
167 1 10.9100761061 9.1317421826 0.2289065144
168 1 9.8874943729 10.6384120618 2.0361357936
169 1 13.4208440114 8.6276494828 -3.3864361676
170 1 12.4058745501 10.1331312788 -1.5788636329
171 1 11.4010851772 11.6356484559 0.2285288058
172 1 13.9114451568 11.1341376746 -3.3863222476
173 1 12.9118102731 12.6375503698 -1.5788636987
174 1 7.9291312367 -12.4316964971 2.0361352140
175 1 10.4127923272 -12.9307489690 -1.5788641810
176 1 9.4194794354 -11.4217967618 0.2282186492
177 1 8.3904472351 -9.9054105720 2.0361352996
178 1 11.9106781863 -11.9243167578 -3.3862760134
179 1 10.8934667231 -10.4136932335 -1.5788640284
180 1 9.8583719023 -8.9023659450 0.2287619214
181 1 8.8201534591 -7.3951840352 2.0361354845
182 1 12.3768626683 -9.4105779412 -3.3864251392
183 1 11.3525791720 -7.9045015817 -1.5788638759
184 1 10.3380594902 -6.4028921047 0.2286314790
185 1 9.3437029035 -4.9066128488 2.0361357868
186 1 12.8639986486 -6.9080832951 -3.3863547834
187 1 11.8649367989 -5.4086268888 -1.5788635962
188 1 10.8795996552 -3.9114843307 0.2286005511
189 1 9.9027006058 -2.4147250799 2.0361361526
190 1 13.3909929053 -4.4115437496 -3.3863554141
191 1 12.4062361417 -2.9124382480 -1.5788632872
192 1 11.4227575212 -1.4122800836 0.2286234700
193 1 10.4353194018 0.0893594608 2.0361364111
194 1 13.9234310398 -1.9108855807 -3.3863610788
195 1 12.9337797541 -0.4087824911 -1.5788631094
196 1 11.9411030049 1.0940868498 0.2286579333
197 1 10.9462616482 2.5971850505 2.0361365207
198 1 14.4411864601 0.5948460609 -3.3863685807
199 1 13.4462234825 2.0983241887 -1.5788629149
200 1 12.4502643879 3.6022225746 0.2286061941
201 1 11.4533372627 5.1070009319 2.0361365055
202 1 14.9488902464 3.1029263148 -3.3863612953
203 1 13.9493160276 4.6079881730 -1.5788629732
204 1 12.9453219516 6.1144354034 0.2285705710
205 1 11.9323158567 7.6226481859 2.0361364250
206 1 15.4446450473 5.6137461937 -3.3863479883
207 1 14.4354968232 7.1206087192 -1.5788630827
208 1 13.4208440614 8.6276495731 0.2287094358
209 1 12.4060715768 10.1332422822 2.0361362677
210 1 15.9287622716 8.1248944803 -3.3863818307
211 1 14.9179164881 9.6302467805 -1.5788631421
212 1 13.9114452211 11.1341377369 0.2285954080
213 1 12.9119137890 12.6375289773 2.0361364067
214 1 16.4198891760 10.6324869205 -3.3863495913
215 1 15.4157985901 12.1367408969 -1.5788631526
216 1 10.4133877790 -12.9307638975 2.0361357859
217 1 11.9106783017 -11.9243168099 0.2285483435
218 1 10.8933378791 -10.4139483320 2.0361359452
219 1 14.4110024925 -12.4260277970 -3.3863500526
220 1 13.3987475941 -10.9186488731 -1.5788636122
221 1 12.3768626641 -9.4105779474 0.2286977166
222 1 11.3523845785 -7.9044431550 2.0361361315
223 1 14.8911443602 -9.9157163582 -3.3863817523
224 1 13.8748573032 -8.4106260057 -1.5788633344
225 1 12.8639985587 -6.9080832606 0.2286279342
226 1 11.8652315910 -5.4086686005 2.0361363933
227 1 15.3835811733 -7.4119188466 -3.3863560074
228 1 14.3827130115 -5.9109718347 -1.5788630883
229 1 13.3909929502 -4.4115436949 0.2286289776
230 1 12.4060212261 -2.9124113718 2.0361367443
231 1 15.9018824150 -4.9122737875 -3.3863614441
232 1 14.9115888124 -3.4118684068 -1.5788629241
233 1 13.9234310009 -1.9108856376 0.2286351303
234 1 12.9339846505 -0.4088410559 2.0361368850
235 1 16.4264008406 -2.4104219860 -3.3863624361
236 1 15.4345760765 -0.9081642481 -1.5788626791
237 1 14.4411863836 0.5948460839 0.2286429879
238 1 13.4460142608 2.0983862888 2.0361370108
239 1 16.9422032740 0.0950801475 -3.3863633242
240 1 15.9462706811 1.5987098260 -1.5788626331
241 1 14.9488902770 3.1029263097 0.2286357977
242 1 13.9495384765 4.6079543558 2.0361370393
243 1 17.4489701268 2.6029168673 -3.3863629153
244 1 16.4485200198 4.1078636304 -1.5788626130
245 1 15.4446450259 5.6137462257 0.2286223803
246 1 14.4353408723 7.1205827908 2.0361369235
247 1 17.9459510196 5.1127291752 -3.3863585570
248 1 16.9390122004 6.6187474923 -1.5788626215
249 1 15.9287623284 8.1248945436 0.2286560393
250 1 14.9179948606 9.6302761776 2.0361368738
251 1 18.4352425821 7.6226916994 -3.3863674133
252 1 17.4267439344 9.1279416217 -1.5788627922
253 1 16.4198891664 10.6324869347 0.2286237164
254 1 15.4158055468 12.1367287311 2.0361368684
255 1 18.9274137260 10.1306783032 -3.3863584336
256 1 17.9217569347 11.6352824525 -1.5788627395
257 1 19.4220844624 12.6383674386 -3.3863634378
258 1 14.4110024281 -12.4260278480 0.2286233565
259 1 13.3986929233 -10.9187080302 2.0361364189
260 1 16.9156061881 -12.9278189675 -3.3863627533
261 1 15.9058595516 -11.4219273451 -1.5788630962
262 1 14.8911442939 -9.9157163338 0.2286553443
263 1 13.8748234086 -8.4105939744 2.0361366621
264 1 17.4032291204 -10.4193544568 -3.3863675542
265 1 16.3917970467 -8.9148421387 -1.5788629168
266 1 15.3835811243 -7.4119188723 0.2286300454
267 1 14.3828015581 -5.9109854312 2.0361368399
268 1 17.8991206734 -7.9148766535 -3.3863597504
269 1 16.8974324076 -6.4130295401 -1.5788627784
270 1 15.9018824365 -4.9122737935 0.2286359052
271 1 14.9115136339 -3.4118566295 2.0361371272
272 1 18.4121028414 -5.4132477395 -3.3863627697
273 1 17.4181492526 -3.9119613116 -1.5788625277
274 1 16.4264007812 -2.4104220554 0.2286371593
275 1 15.4346465113 -0.9081816215 2.0361372549
276 1 18.9307862945 -2.9104227854 -3.3863623816
277 1 17.9368577025 -1.4079721980 -1.5788623970
278 1 16.9422033246 0.0950802045 0.2286384199
279 1 15.9462021972 1.5987268592 2.0361373700
280 1 19.4442817267 -0.4049572826 -3.3863622417
281 1 18.4473315945 1.0986897302 -1.5788622642
282 1 17.4489701711 2.6029168133 0.2286380940
283 1 16.4485868217 4.1078554634 2.0361373899
284 1 19.9503147340 2.1025782536 -3.3863624137
285 1 18.9494320237 3.6073187972 -1.5788622893
286 1 17.9459510456 5.1127291098 0.2286336152
287 1 16.9389635300 6.6187442533 2.0361373384
288 1 20.4484722719 4.6116213261 -3.3863610407
289 1 19.4429663251 6.1170873900 -1.5788623197
290 1 18.4352425786 7.6226917721 0.2286423577
291 1 17.4267719111 9.1279488986 2.0361372773
292 1 20.9410686566 7.1208043986 -3.3863634301
293 1 19.9340467311 8.6259050718 -1.5788623517
294 1 18.9274137798 10.1306783568 0.2286334399
295 1 17.9217526217 11.6352780360 2.0361372360
296 1 21.4344672700 9.6288382130 -3.3863609278
297 1 20.4284798676 11.1335310929 -1.5788623707
298 1 19.4220844405 12.6383674145 0.2286383654
299 1 21.9293099882 12.1363865638 -3.3863625202
300 1 16.9156062561 -12.9278189521 0.2286369120
301 1 15.9058445974 -11.4219396341 2.0361369116
302 1 18.4138943257 -11.9245894010 -1.5788627459
303 1 17.4032290999 -10.4193544978 0.2286417623
304 1 16.3917918714 -8.9148310976 2.0361370478
305 1 19.9139813926 -10.9222481835 -3.3863635127
306 1 18.9055107709 -9.4180433924 -1.5788626070
307 1 17.8991206861 -7.9148766983 0.2286343377
308 1 16.8974569658 -6.4130358608 2.0361372103
309 1 20.4120162005 -8.4173324912 -3.3863613721
310 1 19.4099670349 -6.9148914395 -1.5788624623
311 1 18.4121029005 -5.4132476823 0.2286377180
312 1 17.4181236534 -3.9119571744 2.0361375035
313 1 20.9216309221 -5.9143750004 -3.3863624810
314 1 19.9252270892 -4.4124360950 -1.5788623222
315 1 18.9307862583 -2.9104228205 0.2286377287
316 1 17.9368815374 -1.4079774833 2.0361376014
317 1 21.4360226715 -3.4107597011 -3.3863620714
318 1 20.4402839547 -1.9080813134 -1.5788620808
319 1 19.4442817346 -0.4049572583 0.2286379061
320 1 18.4473091083 1.0986944201 2.0361378301
321 1 21.9473154919 -0.9052281629 -3.3863617987
322 1 20.9494142243 0.5984243790 -1.5788619911
323 1 19.9503147041 2.1025782914 0.2286381255
324 1 18.9494526419 3.6073162695 2.0361376885
325 1 22.4527071263 1.6020349274 -3.3863619420
326 1 21.4515759801 3.1065800539 -1.5788619659
327 1 20.4484723240 4.6116213224 0.2286368246
328 1 19.4429508248 6.1170871746 2.0361376298
329 1 22.9518200080 4.1104893693 -3.3863613864
330 1 21.9472528716 5.6155749078 -1.5788619441
331 1 20.9410686402 7.1208044036 0.2286392132
332 1 19.9340562741 8.6259066165 2.0361376098
333 1 23.4466465412 6.6191113870 -3.3863620647
334 1 22.4406400642 8.1240468274 -1.5788619043
335 1 21.4344673195 9.6288382482 0.2286367078
336 1 20.4284769347 11.1335296748 2.0361375917
337 1 23.9412653252 9.1270367446 -3.3863613500
338 1 22.9354629649 10.6316986304 -1.5788618504
339 1 21.9293099479 12.1363865597 0.2286383669
340 1 24.4367639455 11.6344428563 -3.3863617642
341 1 18.4138918157 -11.9245912826 2.0361373218
342 1 20.9222336640 -12.4269613738 -1.5788622740
343 1 19.9139814625 -10.9222482072 0.2286385605
344 1 18.9055099327 -9.4180399874 2.0361373791
345 1 22.4238203976 -11.4247160644 -3.3863622205
346 1 21.4171858110 -9.9206729931 -1.5788622218
347 1 20.4120161685 -8.4173324886 0.2286365990
348 1 19.4099735030 -6.9148940350 2.0361375879
349 1 22.9231448316 -8.9194789062 -3.3863616650
350 1 21.9209309679 -7.4166363261 -1.5788621653
351 1 20.9216309474 -5.9143750375 0.2286380880
352 1 19.9252187665 -4.4124347285 2.0361377957
353 1 23.4305383829 -6.4156026718 -3.3863619192
354 1 22.4324626827 -4.9131766877 -1.5788620196
355 1 21.4360226104 -3.4107597607 0.2286380130
356 1 20.4402919299 -1.9080828370 2.0361378132
357 1 23.9417656080 -3.9113559896 -3.3863617019
358 1 22.9445506253 -2.4084531060 -1.5788617405
359 1 21.9473155337 -0.9052281555 0.2286380396
360 1 20.9494070176 0.5984257692 2.0361379870
361 1 24.4511347920 -1.4057121256 -3.3863615379
362 1 23.4523962096 0.0979567359 -1.5788616816
363 1 22.4527071033 1.6020349083 0.2286383039
364 1 21.4515824834 3.1065792608 2.0361380231
365 1 24.9559451219 1.1013350042 -3.3863614452
366 1 23.9546355868 2.6057230020 -1.5788615901
367 1 22.9518200409 4.1104894313 0.2286378964
368 1 21.9472478525 5.6155750075 2.0361380766
369 1 25.4557755698 3.6093410988 -3.3863612484
370 1 24.4518340322 5.1141560584 -1.5788614927
371 1 23.4466465706 6.6191113696 0.2286387781
372 1 22.4406431310 8.1240471162 2.0361380976
373 1 25.9521771332 6.1175373435 -3.3863613055
374 1 24.9469152408 7.6223145843 -1.5788614350
375 1 23.9412652909 9.1270367893 0.2286380371
376 1 22.9354616931 10.6316982315 2.0361381333
377 1 26.4479164223 8.6252957279 -3.3863609567
378 1 25.4424907581 10.1298804329 -1.5788613410
379 1 24.4367639500 11.6344428325 0.2286385277
380 1 26.9442141516 11.1325682907 -3.3863611877
381 1 25.9386867473 12.6369626451 -1.5788613818
382 1 20.9222338403 -12.4269616018 2.0361377415
383 1 23.4305481829 -12.9291390058 -1.5788618269
384 1 22.4238203814 -11.4247161369 0.2286381376
385 1 21.4171854748 -9.9206720699 2.0361377184
386 1 24.9329786350 -11.9269072058 -3.3863614696
387 1 23.9275127933 -10.4229464535 -1.5788617841
388 1 22.9231448067 -8.9194788691 0.2286377632
389 1 21.9209326982 -7.4166371149 2.0361378663
390 1 25.4330645914 -9.4214182442 -3.3863613897
391 1 24.4307639388 -7.9182978434 -1.5788617125
392 1 23.4305384135 -6.4156027582 0.2286382330
393 1 22.4324601786 -4.9131761910 2.0361380177
394 1 25.9389301473 -6.9168903860 -3.3863615063
395 1 24.9396887330 -5.4141021322 -1.5788615430
396 1 23.9417655660 -3.9113559953 0.2286382647
397 1 22.9445532296 -2.4084536431 2.0361382152
398 1 26.4478106445 -4.4121470032 -3.3863612988
399 1 25.4494231146 -2.9090454652 -1.5788614328
400 1 24.4511347827 -1.4057120980 0.2286384695
401 1 23.4523938691 0.0979572520 2.0361383372
402 1 26.9555736535 -1.9063780257 -3.3863610356
403 1 25.9561223561 -0.4026843591 -1.5788612237
404 1 24.9559450897 1.1013349446 0.2286386413
405 1 23.9546376153 2.6057227888 2.0361383840
406 1 27.4598575138 0.6005080650 -3.3863609389
407 1 26.4583948050 2.1047770911 -1.5788611241
408 1 25.4557756055 3.6093412038 0.2286385661
409 1 24.4518324440 5.1141560585 2.0361385034
410 1 27.9602031317 3.1081727351 -3.3863607984
411 1 26.9566850395 4.6127896371 -1.5788610756
412 1 25.9521771395 6.1175373400 0.2286388439
413 1 24.9469161886 7.6223146935 2.0361385316
414 1 28.4577551844 5.6160360784 -3.3863607218
415 1 27.4530616539 7.1206722899 -1.5788609511
416 1 26.4479164341 8.6252957586 0.2286386220
417 1 25.4424903295 10.1298803620 2.0361386068
418 1 28.9544783134 8.1236164525 -3.3863605982
419 1 27.9494745126 9.6281124592 -1.5788609164
420 1 26.9442141312 11.1325683031 0.2286389313
421 1 25.9386868541 12.6369628081 2.0361387028
422 1 29.4515645604 10.6307700493 -3.3863605539
423 1 28.4465951893 12.1350623134 -1.5788607912
424 1 23.4305486301 -12.9291389695 2.0361381818
425 1 24.9329785414 -11.9269072548 0.2286384127
426 1 23.9275125387 -10.4229462275 2.0361382589
427 1 27.4416039589 -12.4289057006 -3.3863609670
428 1 26.4369070035 -10.9249826956 -1.5788612509
429 1 25.4330644653 -9.4214182174 0.2286384534
430 1 24.4307643491 -7.9182980958 2.0361383264
431 1 27.9421348737 -9.9232129556 -3.3863609158
432 1 26.9397774092 -8.4198946100 -1.5788611520
433 1 25.9389302197 -6.9168904193 0.2286386546
434 1 24.9396879650 -5.4141020123 2.0361383924
435 1 28.4469095344 -7.4182124618 -3.3863608741
436 1 27.4468377144 -5.9151539259 -1.5788610444
437 1 26.4478106390 -4.4121469695 0.2286387611
438 1 25.4494240842 -2.9090454938 2.0361385722
439 1 28.9540364464 -4.9130816995 -3.3863607309
440 1 27.9547305298 -3.4098133089 -1.5788609047
441 1 26.9555736490 -1.9063780323 0.2286388771
442 1 25.9561216367 -0.4026842131 2.0361388065
443 1 29.4604911075 -2.4071924575 -3.3863605159
444 1 28.4604454902 -0.9034700405 -1.5788607446
445 1 27.4598575334 0.6005080694 0.2286390352
446 1 26.4583954461 2.1047770209 2.0361389014
447 1 29.9643050443 0.0995779186 -3.3863604269
448 1 28.9627002388 1.6037585679 -1.5788606657
449 1 27.9602031606 3.1081727429 0.2286391229
450 1 26.9566845505 4.6127896032 2.0361389768
451 1 30.4650090993 2.6069819300 -3.3863603606
452 1 29.4617811177 4.1114501471 -1.5788605136
453 1 28.4577552099 5.6160361087 0.2286393065
454 1 27.4530618306 7.1206722125 2.0361390770
455 1 30.9634211336 5.1145808052 -3.3863602166
456 1 29.9591706201 6.6190948063 -1.5788603940
457 1 28.9544782525 8.1236164314 0.2286393130
458 1 27.9494743595 9.6281122493 2.0361391372
459 1 31.4609836044 7.6219932107 -3.3863600012
460 1 30.4563825772 9.1264033745 -1.5788602985
461 1 29.4515644443 10.6307700981 0.2286394898
462 1 28.4465952082 12.1350624850 2.0361392318
463 1 31.9587840299 10.1290443087 -3.3863598762
464 1 30.9542689551 11.6332637723 -1.5788602184
465 1 32.4576549128 12.6356096479 -3.3863597651
466 1 27.4416038775 -12.4289056890 0.2286389522
467 1 26.4369069776 -10.9249827132 2.0361387079
468 1 29.9498022074 -12.9307639686 -3.3863603808
469 1 28.9456295593 -11.4268543996 -1.5788607099
470 1 27.9421348053 -9.9232129350 0.2286390269
471 1 26.9397776330 -8.4198947961 2.0361388278
472 1 30.4505923804 -10.4249046918 -3.3863603136
473 1 29.4481907157 -8.9214412314 -1.5788605311
474 1 28.4469095388 -7.4182124133 0.2286391894
475 1 27.4468374186 -5.9151538054 2.0361388984
476 1 30.9545647010 -7.9195540572 -3.3863602200
477 1 29.9538897578 -6.4162927699 -1.5788604744
478 1 28.9540364209 -4.9130817290 0.2286393455
479 1 27.9547308637 -3.4098132880 2.0361391121
480 1 31.4603706031 -5.4141222557 -3.3863601780
481 1 30.4603499384 -3.9107176818 -1.5788603679
482 1 29.4604910581 -2.4071924577 0.2286393272
483 1 28.4604451932 -0.9034699275 2.0361392371
484 1 31.9657741037 -2.9081251166 -3.3863599733
485 1 30.9652397560 -1.4043733038 -1.5788602391
486 1 29.9643050841 0.0995779075 0.2286395902
487 1 28.9627004105 1.6037585437 2.0361393585
488 1 32.4691761303 -0.4014362424 -3.3863599263
489 1 31.4674380681 1.1026795999 -1.5788601426
490 1 30.4650090983 2.6069819303 0.2286397402
491 1 29.4617809872 4.1114500793 2.0361394931
492 1 32.9701233748 2.1057684105 -3.3863597468
493 1 31.9670955523 3.6101228295 -1.5788599758
494 1 30.9634211226 5.1145808037 0.2286398673
495 1 29.9591707155 6.6190948066 2.0361396350
496 1 33.4691876682 4.6131553563 -3.3863596373
497 1 32.4652861115 6.1175661077 -1.5788597546
498 1 31.4609836617 7.6219932537 0.2286399488
499 1 30.4563824272 9.1264033140 2.0361397345
500 1 33.9674525955 7.1204187071 -3.3863594278
501 1 32.9632093232 8.6247517165 -1.5788596536
502 1 31.9587839652 10.1290442721 0.2286401415
503 1 30.9542689857 11.6332637318 2.0361398629
504 1 34.4658716801 9.6273826454 -3.3863593200
505 1 33.4617262221 11.1315482302 -1.5788594955
506 1 32.4576548789 12.6356096485 0.2286402179
507 1 34.9652272822 12.1339371486 -3.3863591156
508 1 29.9498022058 -12.9307639181 0.2286395665
509 1 28.9456295148 -11.4268544603 2.0361393116
510 1 31.4538523973 -11.9286083676 -1.5788600813
511 1 30.4505924106 -10.4249047068 0.2286396468
512 1 29.4481907935 -8.9214412707 2.0361394904
513 1 32.9585972349 -10.9265213084 -3.3863596765
514 1 31.9561584618 -9.4229488610 -1.5788600040
515 1 30.9545647549 -7.9195540637 0.2286397327
516 1 29.9538896655 -6.4162927155 2.0361395850
517 1 33.4619664971 -8.4209070895 -3.3863596902
518 1 32.4608463823 -6.9174919958 -1.5788599027
519 1 31.4603705529 -5.4141222513 0.2286398526
520 1 30.4603500893 -3.9107176019 2.0361395620
521 1 33.9667696345 -5.9152413196 -3.3863596184
522 1 32.9661943109 -4.4117268946 -1.5788598151
523 1 31.9657742495 -2.9081250497 0.2286398527
524 1 30.9652397147 -1.4043732625 2.0361397378
525 1 34.4713355260 -3.4091511300 -3.3863595547
526 1 33.4704027153 -1.9053712116 -1.5788598057
527 1 32.4691761636 -0.4014361731 0.2286400117
528 1 31.4674381363 1.1026797539 2.0361398835
529 1 34.9743820535 -0.9025189155 -3.3863594774
530 1 33.9725210535 0.6015500378 -1.5788596899
531 1 32.9701233434 2.1057683638 0.2286401495
532 1 31.9670955754 3.6101228361 2.0361400123
533 1 35.4754903047 1.6045325501 -3.3863592117
534 1 34.4726011806 3.1087993620 -1.5788594138
535 1 33.4691876766 4.6131553854 0.2286403390
536 1 32.4652861571 6.1175661592 2.0361402603
537 1 35.9750534150 4.1117495995 -3.3863589813
538 1 34.9714277020 5.6160744097 -1.5788591768
539 1 33.9674525533 7.1204186788 0.2286405533
540 1 32.9632092938 8.6247516029 2.0361403946
541 1 36.4738980683 6.6188848374 -3.3863588579
542 1 35.4699609682 8.1231512904 -1.5788589988
543 1 34.4658717061 9.6273826370 0.2286407481
544 1 33.4617262869 11.1315482753 2.0361404844
545 1 36.9728394706 9.1257759399 -3.3863587405
546 1 35.9689943538 10.6299003737 -1.5788588743
547 1 34.9652273340 12.1339370891 0.2286408479
548 1 37.4725728693 11.6323274663 -3.3863585891
549 1 31.4538524413 -11.9286084472 2.0361399696
550 1 33.9616945354 -12.4302759492 -1.5788594158
551 1 32.9585971959 -10.9265213521 0.2286402746
552 1 31.9561584376 -9.4229489547 2.0361400180
553 1 35.4662607037 -11.4280829541 -3.3863592212
554 1 34.4637907145 -9.9244269237 -1.5788594341
555 1 33.4619666289 -8.4209070751 0.2286403945
556 1 32.4608463456 -6.9174921506 2.0361401297
557 1 35.9691705344 -8.9222675235 -3.3863590644
558 1 34.9677173678 -7.4187349879 -1.5788593469
559 1 33.9667695537 -5.9152413574 0.2286404547
560 1 32.9661942224 -4.4117268965 2.0361402079
561 1 36.4732070035 -6.4164193708 -3.3863589912
562 1 35.4722011235 -4.9128170759 -1.5788592362
563 1 34.4713355422 -3.4091511763 0.2286405104
564 1 33.4704026506 -1.9053711879 2.0361402304
565 1 36.9771081316 -3.9102508072 -3.3863588914
566 1 35.9758528147 -2.4064450898 -1.5788592729
567 1 34.9743819714 -0.9025189021 0.2286405574
568 1 33.9725210432 0.6015500884 2.0361403693
569 1 37.4798524549 -1.4036573829 -3.3863587913
570 1 36.4778804313 0.1003777333 -1.5788590701
571 1 35.4754902549 1.6045326689 0.2286407337
572 1 34.4726012143 3.1087994206 2.0361405917
573 1 37.9810645462 1.1032762426 -3.3863587733
574 1 36.9782715393 2.6074751009 -1.5788588776
575 1 35.9750535314 4.1117496426 0.2286408903
576 1 34.9714278052 5.6160743589 2.0361407681
577 1 38.4810109572 3.6103567409 -3.3863586269
578 1 37.4776030473 5.1146109769 -1.5788586899
579 1 36.4738980886 6.6188848626 0.2286411463
580 1 35.4699609203 8.1231512793 2.0361409963
581 1 38.9803286385 6.1173840061 -3.3863583428
582 1 37.9766472567 7.6215947141 -1.5788585102
583 1 36.9728394669 9.1257759433 0.2286413021
584 1 35.9689943514 10.6299004341 2.0361410926
585 1 39.4797036183 8.6242145183 -3.3863581656
586 1 38.4761019768 10.1283074285 -1.5788583813
587 1 37.4725729729 11.6323274581 0.2286413935
588 1 39.9797347806 11.1307668395 -3.3863579891
589 1 38.9765583836 12.6346945647 -1.5788582381
590 1 33.9616944684 -12.4302759411 2.0361405391
591 1 36.4692419210 -12.9318787970 -1.5788587777
592 1 35.4662606985 -11.4280829464 0.2286409881
593 1 34.4637908061 -9.9244270414 2.0361406001
594 1 37.9736627378 -11.9296028816 -3.3863585934
595 1 36.9711671661 -10.4258826047 -1.5788587847
596 1 35.9691706077 -8.9222675645 0.2286409408
597 1 34.9677173631 -7.4187348894 2.0361406440
598 1 38.4762193058 -9.4236324167 -3.3863584650
599 1 37.4745146009 -7.9200096539 -1.5788586936
600 1 36.4732070090 -6.4164194111 0.2286409607
601 1 35.4722010929 -4.9128171047 2.0361407497
602 1 38.9796666123 -6.9176421239 -3.3863583499
603 1 37.9783262321 -5.4139699231 -1.5788586465
604 1 36.9771081296 -3.9102507787 0.2286410404
605 1 35.9758528906 -2.4064450164 2.0361408856
606 1 39.4830416005 -4.4114085952 -3.3863582577
607 1 38.4815262968 -2.9075798699 -1.5788585769
608 1 37.4798524800 -1.4036574733 0.2286411260
609 1 36.4778804572 0.1003777439 2.0361408796
610 1 39.9855321330 -1.9048420120 -3.3863581763
611 1 38.9834616832 -0.4008309367 -1.5788584626
612 1 37.9810645612 1.1032762996 0.2286412950
613 1 36.9782713590 2.6074750150 2.0361410807
614 1 40.4868087471 0.6020006471 -3.3863581022
615 1 39.4840816871 2.1061467901 -1.5788583356
616 1 38.4810110797 3.6103567865 0.2286415106
617 1 37.4776030378 5.1146109445 2.0361413098
618 1 40.9870499840 3.1089715777 -3.3863580065
619 1 39.9838135528 4.6131685112 -1.5788581542
620 1 38.9803286088 6.1173840038 0.2286417290
621 1 37.9766471979 7.6215948056 2.0361415065
622 1 41.4867500479 5.6159090858 -3.3863577804
623 1 40.4832788077 7.1200738598 -1.5788579402
624 1 39.4797035708 8.6242145466 0.2286418160
625 1 38.4761019157 10.1283075191 2.0361416462
626 1 41.9864803380 8.1226900485 -3.3863575548
627 1 40.9830757558 9.6267583414 -1.5788578279
628 1 39.9797347797 11.1307667970 0.2286420174
629 1 38.9765585262 12.6346945443 2.0361417933
630 1 42.4867481013 10.6292445410 -3.3863573594
631 1 41.4836921929 12.1331793949 -1.5788575760
632 1 36.4692419705 -12.9318787956 2.0361411992
633 1 37.9736627286 -11.9296029034 0.2286415308
634 1 36.9711674595 -10.4258825985 2.0361412204