#LAMMPS data file
3190 atoms
2 atom types
-125.2250000000 125.2250000000 xlo xhi
-13.0340632500 13.0340632500 ylo yhi
-3.6150000000 3.6150000000 zlo zhi
0.0 0.0 0.0 xy xz yz

Atoms # atomic

1 1 0.3981214900 7.0004328774 -3.3858197388
2 1 0.5339446033 9.5495606604 -3.3858197304
3 1 0.9707875316 11.9983127742 -3.3858197386
4 1 0.3981198738 -12.5506620090 -1.5783197386
5 1 0.3981192136 -6.0336294768 -3.3858197400
6 1 0.5339428268 -3.4845016711 -3.3858197315
7 1 0.9707868774 -1.0357497021 -3.3858197400
8 1 0.3981208284 0.4834021602 -1.5783197400
9 1 1.7282104869 1.5188074411 -3.3858197455
10 1 0.5339446678 3.0325296511 -1.5783197305
11 1 2.0001379446 4.0435192295 -3.3858197433
12 1 0.9707889923 5.4812813311 -1.5783197392
13 1 0.3981214902 7.0004328774 0.2291802609
14 1 2.7278916468 6.4878991565 -3.3858197561
15 1 1.7282109024 8.0358384896 -1.5783197448
16 1 0.5339446032 9.5495606605 0.2291802702
17 1 3.1011300478 9.0462954718 -3.3858197534
18 1 2.0001370481 10.5605505533 -1.5783197435
19 1 0.9707875315 11.9983127742 0.2291802614
20 1 0.3981198741 -12.5506620092 2.0366802613
21 1 3.5774671607 11.5229739618 -3.3858197574
22 1 2.7278897539 13.0049308375 -1.5783197548
23 1 1.7282089020 -11.5152561023 -3.3858197443
24 1 0.5339427627 -10.0015339098 -1.5783197301
25 1 2.0001348337 -8.9905436873 -3.3858197432
26 1 0.9707854232 -7.5527815077 -1.5783197397
27 1 0.3981192115 -6.0336294765 0.2291802596
28 1 2.7278886590 -6.5461634894 -3.3858197556
29 1 1.7282084881 -4.9982239001 -1.5783197463
30 1 0.5339428265 -3.4845016710 0.2291802680
31 1 3.1011277805 -3.9877669099 -3.3858197552
32 1 2.0001357275 -2.4735117631 -1.5783197450
33 1 0.9707868776 -1.0357497025 0.2291802594
34 1 0.3981208250 0.4834021604 2.0366802601
35 1 3.5774666558 -1.5110886694 -3.3858197603
36 1 2.7278905465 -0.0291319214 -1.5783197569
37 1 1.7282104861 1.5188074416 0.2291802539
38 1 0.5339446684 3.0325296520 2.0366802695
39 1 4.1768638310 1.0018591225 -3.3858197655
40 1 3.1011301745 2.5292642490 -1.5783197549
41 1 2.0001379445 4.0435192291 0.2291802556
42 1 0.9707889919 5.4812813314 2.0366802610
43 1 4.5781729899 3.5221350935 -3.3858197656
44 1 3.5774687809 5.0059423905 -1.5783197587
45 1 2.7278916466 6.4878991565 0.2291802436
46 1 1.7282109017 8.0358384888 2.0366802549
47 1 5.1651585101 6.0034186372 -3.3858197723
48 1 4.1768644600 7.5188902719 -1.5783197641
49 1 3.1011300477 9.0462954713 0.2291802456
50 1 2.0001370469 10.5605505532 2.0366802569
51 1 5.6235599617 8.5308234170 -3.3858197732
52 1 4.5781720209 10.0391665175 -1.5783197640
53 1 3.5774671603 11.5229739615 0.2291802421
54 1 2.7278897543 13.0049308370 2.0366802456
55 1 6.1137032871 11.0267643229 -3.3858197756
56 1 5.1651562374 12.5204504379 -1.5783197698
57 1 6.6546781342 -12.5336309608 -3.3858197800
58 1 1.7282089012 -11.5152561019 0.2291802559
59 1 0.5339427635 -10.0015339101 2.0366802696
60 1 4.1768620161 -12.0322042620 -3.3858197631
61 1 3.1011276522 -10.5047989379 -1.5783197530
62 1 2.0001348337 -8.9905436873 0.2291802565
63 1 0.9707854232 -7.5527815073 2.0366802605
64 1 4.5781694057 -9.5119277293 -3.3858197631
65 1 3.5774650404 -8.0281203477 -1.5783197576
66 1 2.7278886595 -6.5461634898 0.2291802442
67 1 1.7282084884 -4.9982239008 2.0366802539
68 1 5.1651547465 -7.0306438503 -3.3858197702
69 1 4.1768613920 -5.5151721634 -1.5783197638
70 1 3.1011277807 -3.9877669102 0.2291802454
71 1 2.0001357278 -2.4735117626 2.0366802555
72 1 5.6235571500 -4.5032388727 -3.3858197736
73 1 4.5781703751 -2.9948959057 -1.5783197651
74 1 3.5774666555 -1.5110886694 0.2291802410
75 1 2.7278905480 -0.0291319209 2.0366802432
76 1 6.1137026912 -2.0072982308 -3.3858197779
77 1 5.1651570132 -0.5136124013 -1.5783197724
78 1 4.1768638305 1.0018591230 0.2291802348
79 1 3.1011301739 2.5292642503 2.0366802451
80 1 6.6546802559 0.5004324231 -3.3858197830
81 1 5.6235600646 2.0137921840 -1.5783197749
82 1 4.5781729902 3.5221350941 0.2291802351
83 1 3.5774687802 5.0059423904 2.0366802415
84 1 7.1141944407 3.0131267761 -3.3858197852
85 1 6.1137051544 4.5097326963 -1.5783197777
86 1 5.1651585102 6.0034186372 0.2291802303
87 1 4.1768644595 7.5188902742 2.0366802357
88 1 7.6474251883 5.5098905950 -3.3858197888
89 1 6.6546811145 7.0174634648 -1.5783197810
90 1 5.6235599620 8.5308234173 0.2291802267
91 1 4.5781720206 10.0391665176 2.0366802364
92 1 8.1351085093 8.0245187144 -3.3858197921
93 1 7.1141933412 9.5301581688 -1.5783197833
94 1 6.1137032869 11.0267643223 0.2291802240
95 1 5.1651562379 12.5204504369 2.0366802297
96 1 8.6307298097 10.5271674087 -3.3858197953
97 1 7.6474224182 12.0269224676 -1.5783197880
98 1 6.6546781346 -12.5336309603 0.2291802195
99 1 9.1480999033 13.0336724997 -3.3858197993
100 1 4.1768620152 -12.0322042620 0.2291802379
101 1 3.1011276518 -10.5047989369 2.0366802467
102 1 5.6235570416 -11.0202708873 -1.5783197718
103 1 4.5781694058 -9.5119277298 0.2291802365
104 1 3.5774650401 -8.0281203482 2.0366802423
105 1 7.1141901985 -10.0209359439 -3.3858197823
106 1 6.1137008271 -8.5243298520 -1.5783197753
107 1 5.1651547465 -7.0306438507 0.2291802302
108 1 4.1768613915 -5.5151721637 2.0366802361
109 1 7.6474204977 -7.5241716470 -3.3858197882
110 1 6.6546772830 -6.0165987521 -1.5783197808
111 1 5.6235571500 -4.5032388729 0.2291802267
112 1 4.5781703752 -2.9948959050 2.0366802348
113 1 8.1351050239 -5.0095433268 -3.3858197920
114 1 7.1141913024 -3.5039040886 -1.5783197842
115 1 6.1137026910 -2.0072982311 0.2291802218
116 1 5.1651570119 -0.5136124012 2.0366802273
117 1 8.6307290416 -2.5068949380 -3.3858197971
118 1 7.6474232610 -1.0071402714 -1.5783197908
119 1 6.6546802555 0.5004324228 0.2291802175
120 1 5.6235600641 2.0137921843 2.0366802252
121 1 9.1481024311 -0.0003905392 -3.3858198021
122 1 8.1351085763 1.5074875876 -1.5783197939
123 1 7.1141944402 3.0131267765 0.2291802147
124 1 6.1137051551 4.5097326968 2.0366802226
125 1 9.6326450927 2.5089133844 -3.3858198058
126 1 8.6307320337 4.0101357891 -1.5783197972
127 1 7.6474251891 5.5098905945 0.2291802102
128 1 6.6546811155 7.0174634654 2.0366802190
129 1 10.1457653906 5.0116338035 -3.3858198082
130 1 9.1481035660 6.5166403243 -1.5783198000
131 1 8.1351085092 8.0245187145 0.2291802087
132 1 7.1141933416 9.5301581694 2.0366802168
133 1 10.6428123423 7.5212189235 -3.3858198115
134 1 9.6326438107 9.0259446905 -1.5783198036
135 1 8.6307298105 10.5271674092 0.2291802056
136 1 7.6474224172 12.0269224679 2.0366802119
137 1 11.1412765089 10.0263782655 -3.3858198144
138 1 10.1457619953 11.5286657228 -1.5783198071
139 1 9.1480999037 13.0336724998 0.2291802012
140 1 11.6490908386 12.5327288878 -3.3858198181
141 1 5.6235570424 -11.0202708881 2.0366802283
142 1 8.1351049473 -11.5265754517 -1.5783197913
143 1 7.1141901982 -10.0209359446 0.2291802178
144 1 6.1137008277 -8.5243298521 2.0366802246
145 1 9.6326399650 -10.5251492407 -3.3858198030
146 1 8.6307268180 -9.0239265697 -1.5783197945
147 1 7.6474204979 -7.5241716469 0.2291802122
148 1 6.6546772841 -6.0165987517 2.0366802194
149 1 10.1457595588 -8.0224281695 -3.3858198069
150 1 9.1480987777 -6.5174216143 -1.5783197997
151 1 8.1351050233 -5.0095433273 0.2291802077
152 1 7.1141913011 -3.5039040877 2.0366802156
153 1 10.6428079815 -5.5128428007 -3.3858198110
154 1 9.6326412547 -4.0081172961 -1.5783198044
155 1 8.6307290409 -2.5068949381 0.2291802026
156 1 7.6474232612 -1.0071402703 2.0366802093
157 1 11.1412754842 -3.0076838109 -3.3858198165
158 1 10.1457629489 -1.5053968363 -1.5783198094
159 1 9.1481024314 -0.0003905399 0.2291801980
160 1 8.1351085763 1.5074875889 2.0366802058
161 1 11.6490938785 -0.5013340382 -3.3858198218
162 1 10.6428123574 1.0041879584 -1.5783198132
163 1 9.6326450927 2.5089133843 0.2291801945
164 1 8.6307320343 4.0101357910 2.0366802031
165 1 12.1438107672 2.0064019089 -3.3858198249
166 1 11.1412791959 3.5093466800 -1.5783198170
167 1 10.1457653914 5.0116338039 0.2291801908
168 1 9.1481035665 6.5166403236 2.0366802001
169 1 12.6494509335 4.5114459148 -3.3858198283
170 1 11.6490953609 6.0156966014 -1.5783198205
171 1 10.6428123423 7.5212189243 0.2291801884
172 1 9.6326438112 9.0259446901 2.0366801967
173 1 13.1494619849 7.0191216396 -3.3858198318
174 1 12.1438092552 8.5234330960 -1.5783198229
175 1 11.1412765095 10.0263782657 0.2291801849
176 1 10.1457619948 11.5286657232 2.0366801934
177 1 13.6493998896 9.5251861299 -3.3858198342
178 1 12.6494467590 11.0284778760 -1.5783198259
179 1 11.6490908390 12.5327288882 0.2291801818
180 1 14.1533297012 12.0315872788 -3.3858198374
181 1 13.1494565480 -12.5319721781 -1.5783198294
182 1 8.1351049470 -11.5265754523 2.0366802089
183 1 10.6428079573 -12.0298750846 -1.5783198100
184 1 9.6326399654 -10.5251492407 0.2291801977
185 1 8.6307268181 -9.0239265696 2.0366802053
186 1 12.1438044921 -11.0276606110 -3.3858198220
187 1 11.1412727964 -9.5247154777 -1.5783198148
188 1 10.1457595586 -8.0224281692 0.2291801921
189 1 9.1480987785 -6.5174216144 2.0366802008
190 1 12.6494436694 -8.5226157491 -3.3858198260
191 1 11.6490893650 -7.0183650044 -1.5783198192
192 1 10.6428079813 -5.5128428011 0.2291801885
193 1 9.6326412533 -4.0081172974 2.0366801949
194 1 13.1494564903 -6.0149396965 -3.3858198308
195 1 12.1438060103 -4.5106285504 -1.5783198232
196 1 11.1412754842 -3.0076838111 0.2291801837
197 1 10.1457629485 -1.5053968374 2.0366801905
198 1 13.6493985051 -3.5088756130 -3.3858198342
199 1 12.6494478363 -2.0055844574 -1.5783198274
200 1 11.6490938782 -0.5013340384 0.2291801803
201 1 10.6428123569 1.0041879588 2.0366801869
202 1 14.1533333674 -1.0024755059 -3.3858198386
203 1 13.1494619184 0.5020908747 -1.5783198318
204 1 12.1438107676 2.0064019087 0.2291801758
205 1 11.1412791958 3.5093466814 2.0366801827
206 1 14.6520754778 1.5045685873 -3.3858198425
207 1 13.6494031570 3.0081545933 -1.5783198355
208 1 12.6494509337 4.5114459156 0.2291801711
209 1 11.6490953612 6.0156966013 2.0366801798
210 1 15.1549505103 4.0105228124 -3.3858198463
211 1 14.1533353023 5.5145548619 -1.5783198396
212 1 13.1494619842 7.0191216398 0.2291801688
213 1 12.1438092560 8.5234330963 2.0366801774
214 1 15.6558800769 6.5174830862 -3.3858198497
215 1 14.6520736883 8.0215996263 -1.5783198428
216 1 13.6493998904 9.5251861297 0.2291801655
217 1 12.6494467593 11.0284778763 2.0366801738
218 1 16.1565453121 9.0238638591 -3.3858198534
219 1 15.1549453677 10.5275548195 -1.5783198458
220 1 14.1533297011 12.0315872792 0.2291801631
221 1 13.1494565487 -12.5319721774 2.0366801707
222 1 16.6588968191 11.5303249217 -3.3858198576
223 1 15.6558733092 -13.0336104967 -1.5783198487
224 1 10.6428079576 -12.0298750841 2.0366801897
225 1 12.1438044928 -11.0276606109 0.2291801781
226 1 11.1412727965 -9.5247154768 2.0366801854
227 1 14.6520677480 -11.5294938062 -3.3858198410
228 1 13.6493952404 -10.0259073278 -1.5783198339
229 1 12.6494436688 -8.5226157492 0.2291801732
230 1 11.6490893642 -7.0183650059 2.0366801809
231 1 15.1549414392 -9.0235384808 -3.3858198444
232 1 14.1533277760 -7.5195063419 -1.5783198377
233 1 13.1494564906 -6.0149396970 0.2291801707
234 1 12.1438060097 -4.5106285498 2.0366801769
235 1 15.6558731271 -6.5165777692 -3.3858198491
236 1 14.6520695389 -5.0124615973 -1.5783198417
237 1 13.6493985051 -3.5088756137 0.2291801656
238 1 12.6494478378 -2.0055844581 2.0366801726
239 1 16.1565434364 -4.0101974697 -3.3858198534
240 1 15.1549465716 -2.5065072345 -1.5783198454
241 1 14.1533333671 -1.0024755060 0.2291801617
242 1 13.1494619193 0.5020908745 2.0366801684
243 1 16.6589012413 -1.5037376876 -3.3858198575
244 1 15.6558798882 0.0004525697 -1.5783198495
245 1 14.6520754781 1.5045685874 0.2291801576
246 1 13.6494031561 3.0081545941 2.0366801645
247 1 17.1592129639 1.0030103715 -3.3858198606
248 1 16.1565492946 2.5068323864 -1.5783198534
249 1 15.1549505105 4.0105228127 0.2291801537
250 1 14.1533353027 5.5145548610 2.0366801606
251 1 17.6610745409 3.5093208660 -3.3858198635
252 1 16.6589037692 5.0132923424 -1.5783198573
253 1 15.6558800761 6.5174830868 0.2291801500
254 1 14.6520736888 8.0215996272 2.0366801578
255 1 18.1622755336 6.0160145034 -3.3858198678
256 1 17.1592108491 7.5200412251 -1.5783198609
257 1 16.1565453125 9.0238638592 0.2291801464
258 1 15.1549453683 10.5275548186 2.0366801546
259 1 18.6632836035 8.5225025807 -3.3858198723
260 1 17.6610681975 10.0263529279 -1.5783198655
261 1 16.6588968185 11.5303249210 0.2291801424
262 1 15.6558733093 -13.0336104974 2.0366801510
263 1 19.1649959477 11.0290021539 -3.3858198767
264 1 18.1622670895 12.5330477139 -1.5783198695
265 1 19.6659077603 -12.5324985309 -3.3858198815
266 1 14.6520677477 -11.5294938060 0.2291801590
267 1 13.6493952403 -10.0259073274 2.0366801664
268 1 17.1592034097 -12.0310518661 -3.3858198615
269 1 16.1565394618 -10.5272292478 -1.5783198526
270 1 15.1549414389 -9.0235384810 0.2291801548
271 1 14.1533277749 -7.5195063435 2.0366801624
272 1 17.6610631912 -9.5247399670 -3.3858198659
273 1 16.6588943034 -8.0207683634 -1.5783198568
274 1 15.6558731273 -6.5165777687 0.2291801511
275 1 14.6520695378 -5.0124615977 2.0366801586
276 1 18.1622667236 -7.0180457469 -3.3858198688
277 1 17.1592055229 -5.5140194721 -1.5783198611
278 1 16.1565434362 -4.0101974697 0.2291801474
279 1 15.1549465730 -2.5065072350 2.0366801544
280 1 18.6632810662 -4.5115582245 -3.3858198731
281 1 17.6610695201 -3.0077087745 -1.5783198646
282 1 16.6589012417 -1.5037376875 0.2291801431
283 1 15.6558798879 0.0004525690 2.0366801508
284 1 19.1650012812 -2.0050602303 -3.3858198749
285 1 18.1622751610 -0.5010157030 -1.5783198677
286 1 17.1592129643 1.0030103716 0.2291801395
287 1 16.1565492944 2.5068323863 2.0366801468
288 1 19.6659195885 0.5015635132 -3.3858198787
289 1 18.6632884621 2.0054711905 -1.5783198708
290 1 17.6610745409 3.5093208662 0.2291801358
291 1 16.6589037701 5.0132923426 2.0366801426
292 1 20.1674135254 3.0080129173 -3.3858198817
293 1 19.1650045842 4.5119693739 -1.5783198745
294 1 18.1622755331 6.0160145034 0.2291801321
295 1 17.1592108490 7.5200412249 2.0366801387
296 1 20.6686875450 5.5146077188 -3.3858198857
297 1 19.6659170956 7.0185941294 -1.5783198791
298 1 18.6632836041 8.5225025815 0.2291801276
299 1 17.6610681980 10.0263529277 2.0366801350
300 1 21.1698513063 8.0211310167 -3.3858198907
301 1 20.1674056941 9.5250450414 -1.5783198842
302 1 19.1649959479 11.0290021537 0.2291801230
303 1 18.1622670895 12.5330477134 2.0366801305
304 1 21.6713057484 10.5276514109 -3.3858198956
305 1 20.6686769943 12.0316412959 -1.5783198890
306 1 19.6659077610 -12.5324985314 0.2291801176
307 1 22.1724489389 -13.0339003573 -3.3858199007
308 1 17.1592034102 -12.0310518662 0.2291801380
309 1 16.1565394622 -10.5272292484 2.0366801472
310 1 18.6632762221 -11.0285900842 -1.5783198736
311 1 17.6610631913 -9.5247399669 0.2291801355
312 1 16.6588943025 -8.0207683634 2.0366801431
313 1 20.1673993087 -10.0260473407 -3.3858198855
314 1 19.1649926612 -8.5220907059 -1.5783198771
315 1 18.1622667234 -7.0180457468 0.2291801310
316 1 17.1592055228 -5.5140194712 2.0366801394
317 1 20.6686763634 -7.5194517704 -3.3858198888
318 1 19.6659102469 -6.0154658994 -1.5783198813
319 1 18.6632810657 -4.5115582251 0.2291801277
320 1 17.6610695205 -3.0077087746 2.0366801358
321 1 21.1698478827 -5.0129291255 -3.3858198925
322 1 20.1674071170 -3.5090162120 -1.5783198834
323 1 19.1650012813 -2.0050602302 0.2291801253
324 1 18.1622751615 -0.5010157029 2.0366801325
325 1 21.6713121765 -2.5064106824 -3.3858198939
326 1 20.6686869048 -1.0024220926 -1.5783198860
327 1 19.6659195883 0.5015635136 0.2291801220
328 1 18.6632884615 2.0054711907 2.0366801293
329 1 22.1724635939 0.0001614517 -3.3858198965
330 1 21.1698572324 1.5040997346 -1.5783198895
331 1 20.1674135257 3.0080129170 0.2291801182
332 1 19.1650045838 4.5119693742 2.0366801255
333 1 22.6738258511 2.5066646528 -3.3858198996
334 1 21.6713164875 4.0106183834 -1.5783198926
335 1 20.6686875452 5.5146077191 0.2291801139
336 1 19.6659170950 7.0185941291 2.0366801204
337 1 23.1751156647 5.0132230110 -3.3858199034
338 1 22.1724606659 6.5171917641 -1.5783198972
339 1 21.1698513061 8.0211310169 0.2291801096
340 1 20.1674056941 9.5250450417 2.0366801165
341 1 23.6763478594 7.5197574007 -3.3858199090
342 1 22.6738161773 9.0236968527 -1.5783199019
343 1 21.6713057482 10.5276514113 0.2291801047
344 1 20.6686769944 12.0316412961 2.0366801113
345 1 24.1776982845 10.0262882122 -3.3858199140
346 1 23.1751024732 11.5302570464 -1.5783199075
347 1 22.1724489389 -13.0339003574 0.2291800993
348 1 24.6789288120 12.5328422537 -3.3858199194
349 1 18.6632762221 -11.0285900855 2.0366801263
350 1 21.1698419801 -11.5299610954 -1.5783198935
351 1 20.1673993088 -10.0260473410 0.2291801147
352 1 19.1649926616 -8.5220907060 2.0366801230
353 1 22.6738080324 -10.5273948872 -3.3858199048
354 1 21.6713014629 -9.0234409113 -1.5783198968
355 1 20.6686763631 -7.5194517703 0.2291801106
356 1 19.6659102471 -6.0154659001 2.0366801189
357 1 23.1751014675 -8.0208355178 -3.3858199087
358 1 22.1724518560 -6.5168674208 -1.5783199001
359 1 21.1698478827 -5.0129291253 0.2291801077
360 1 20.1674071171 -3.5090162118 2.0366801166
361 1 23.6763432627 -5.5143018976 -3.3858199107
362 1 22.6738176677 -4.0103638278 -1.5783199028
363 1 21.6713121769 -2.5064106828 0.2291801060
364 1 20.6686869057 -1.0024220923 2.0366801139
365 1 24.1777060259 -3.0077735008 -3.3858199124
366 1 23.1751146465 -1.5038062951 -1.5783199044
367 1 22.1724635935 0.0001614519 0.2291801037
368 1 21.1698572328 1.5040997352 2.0366801109
369 1 24.6789469772 -0.5012227141 -3.3858199147
370 1 23.6763550905 1.0027262655 -1.5783199068
371 1 22.6738258509 2.5066646533 0.2291801001
372 1 21.6713164870 4.0106183833 2.0366801081
373 1 25.1802629427 2.0053010665 -3.3858199187
374 1 24.1777116462 3.5092548795 -1.5783199111
375 1 23.1751156650 5.0132230111 0.2291800956
376 1 22.1724606650 6.5171917635 2.0366801029
377 1 25.6815538888 4.5118460137 -3.3858199232
378 1 24.6789435505 6.0158072011 -1.5783199162
379 1 23.6763478593 7.5197574001 0.2291800914
380 1 22.6738161773 9.0236968534 2.0366800977
381 1 26.1828150451 7.0183837082 -3.3858199279
382 1 25.1802509882 8.5223333443 -1.5783199203
383 1 24.1776982848 10.0262882118 0.2291800862
384 1 23.1751024728 11.5302570472 2.0366800926
385 1 26.6841230477 9.5249195773 -3.3858199327
386 1 25.6815373868 11.0288806137 -1.5783199261
387 1 24.6789288121 12.5328422532 0.2291800810
388 1 27.1853856472 12.0314655026 -3.3858199371
389 1 26.1828001408 -12.5327068416 -1.5783199305
390 1 21.1698419798 -11.5299610958 2.0366801063
391 1 23.6763360708 -12.0313340173 -1.5783199120
392 1 22.6738080328 -10.5273948873 0.2291800957
393 1 21.6713014629 -9.0234409119 2.0366801029
394 1 25.1802406006 -11.0287575872 -3.3858199228
395 1 24.1776927045 -9.5248034348 -1.5783199163
396 1 23.1751014670 -8.0208355180 0.2291800923
397 1 22.1724518555 -6.5168674214 2.0366800998
398 1 25.6815358588 -8.5222113142 -3.3858199270
399 1 24.6789322195 -7.0182509183 -1.5783199192
400 1 23.6763432626 -5.5143018976 0.2291800896
401 1 22.6738176676 -4.0103638277 2.0366800976
402 1 26.1828088969 -6.0156745208 -3.3858199301
403 1 25.1802524918 -4.5117266018 -1.5783199210
404 1 24.1777060264 -3.0077735007 0.2291800866
405 1 23.1751146479 -1.5038062955 2.0366800959
406 1 26.6841323560 -3.5091416355 -3.3858199314
407 1 25.6815523421 -2.0051826454 -1.5783199241
408 1 24.6789469774 -0.5012227146 0.2291800848
409 1 23.6763550895 1.0027262643 2.0366800929
410 1 27.1854081688 -1.0025997846 -3.3858199350
411 1 26.1828238670 0.5013527758 -1.5783199268
412 1 25.1802629423 2.0053010660 0.2291800817
413 1 24.1777116450 3.5092548793 2.0366800885
414 1 27.6867084671 1.5039316360 -3.3858199396
415 1 26.6841396789 3.0078858807 -1.5783199305
416 1 25.6815538887 4.5118460134 0.2291800770
417 1 24.6789435499 6.0158072017 2.0366800842
418 1 28.1879977423 4.0104715878 -3.3858199422
419 1 27.1854041761 5.5144296179 -1.5783199340
420 1 26.1828150447 7.0183837085 0.2291800724
421 1 25.1802509896 8.5223333448 2.0366800797
422 1 28.6892703240 6.5170102041 -3.3858199466
423 1 27.6866936911 8.0209639914 -1.5783199394
424 1 26.6841230474 9.5249195770 0.2291800670
425 1 25.6815373874 11.0288806134 2.0366800739
426 1 29.1905602229 9.0235485802 -3.3858199506
427 1 28.1879770922 10.5275068767 -1.5783199441
428 1 27.1853856472 12.0314655023 0.2291800630
429 1 26.1828001416 -12.5327068422 2.0366800698
430 1 29.6918336453 11.5300915836 -3.3858199555
431 1 28.6892514805 13.0340472316 -1.5783199486
432 1 23.6763360708 -12.0313340174 2.0366800878
433 1 25.1802406006 -11.0287575872 0.2291800773
434 1 24.1776927047 -9.5248034347 2.0366800839
435 1 27.6866804460 -11.5301259279 -3.3858199415
436 1 26.6841157935 -10.0261712142 -1.5783199348
437 1 25.6815358580 -8.5222113141 0.2291800728
438 1 24.6789322194 -7.0182509179 2.0366800807
439 1 28.1879748425 -9.0235842413 -3.3858199462
440 1 27.1853896085 -7.5196271627 -1.5783199376
441 1 26.1828088972 -6.0156745206 0.2291800705
442 1 25.1802524915 -4.5117266005 2.0366800790
443 1 28.6892621319 -6.5170466742 -3.3858199488
444 1 27.6866951153 -5.0130950147 -1.5783199401
445 1 26.6841323557 -3.5091416354 0.2291800676
446 1 25.6815523419 -2.0051826467 2.0366800767
447 1 29.1905713924 -4.0105119793 -3.3858199512
448 1 28.1879954566 -2.5065562517 -1.5783199429
449 1 27.1854081688 -1.0025997844 0.2291800653
450 1 26.1828238651 0.5013527747 2.0366800732
451 1 29.6918615639 -1.5039740746 -3.3858199544
452 1 28.6892810789 -0.0000204564 -1.5783199462
453 1 27.6867084669 1.5039316356 0.2291800628
454 1 26.6841396780 3.0078858819 2.0366800692
455 1 30.1931571407 1.0025599230 -3.3858199582
456 1 29.1905809266 2.5065144508 -1.5783199498
457 1 28.1879977420 4.0104715874 0.2291800580
458 1 27.1854041763 5.5144296184 2.0366800652
459 1 30.6944447424 3.5090978953 -3.3858199624
460 1 29.6918569435 5.0130546705 -1.5783199544
461 1 28.6892703244 6.5170102040 0.2291800533
462 1 27.6866936920 8.0209639922 2.0366800602
463 1 31.1957209675 6.0156367655 -3.3858199675
464 1 30.1931388811 7.5195923580 -1.5783199588
465 1 29.1905602223 9.0235485807 0.2291800481
466 1 28.1879770918 10.5275068766 2.0366800559
467 1 31.6970020714 8.5221765291 -3.3858199721
468 1 30.6944189003 10.0261340327 -1.5783199632
469 1 29.6918336447 11.5300915835 0.2291800441
470 1 28.6892514809 13.0340472313 2.0366800516
471 1 32.1982779703 11.0287187997 -3.3858199763
472 1 31.1956971441 12.5326751376 -1.5783199678
473 1 32.6995633457 -12.5328673081 -3.3858199800
474 1 27.6866804457 -11.5301259282 0.2291800583
475 1 26.6841157934 -10.0261712145 2.0366800657
476 1 30.1931219959 -12.0314962968 -3.3858199595
477 1 29.1905508052 -10.5275411355 -1.5783199526
478 1 28.1879748416 -9.0235842417 0.2291800544
479 1 27.1853896082 -7.5196271622 2.0366800623
480 1 30.6944156613 -9.5249560592 -3.3858199647
481 1 29.6918382206 -8.0210004297 -1.5783199564
482 1 28.6892621318 -6.5170466746 0.2291800514
483 1 27.6866951147 -5.0130950135 2.0366800597
484 1 31.1957100858 -7.0184184051 -3.3858199683
485 1 30.1931400846 -5.5144654515 -1.5783199598
486 1 29.1905713923 -4.0105119789 0.2291800484
487 1 28.1879954565 -2.5065562526 2.0366800567
488 1 31.6970154424 -4.5118831872 -3.3858199720
489 1 30.6944414378 -3.0079289048 -1.5783199637
490 1 29.6918615636 -1.5039740742 0.2291800446
491 1 28.6892810801 -0.0000204578 2.0366800537
492 1 32.1983125708 -2.0053472984 -3.3858199762
493 1 31.1957340685 -0.5013935363 -1.5783199668
494 1 30.1931571409 1.0025599231 0.2291800419
495 1 29.1905809278 2.5065144515 2.0366800497
496 1 32.6996074199 0.5011872416 -3.3858199793
497 1 31.6970278455 2.0051418689 -1.5783199707
498 1 30.6944447427 3.5090978957 0.2291800373
499 1 29.6918569435 5.0130546709 2.0366800454
500 1 33.2008937315 3.0077242664 -3.3858199833
501 1 32.1983072643 4.5116806037 -1.5783199754
502 1 31.1957209676 6.0156367657 0.2291800332
503 1 30.1931388815 7.5195923583 2.0366800411
504 1 33.7021700176 5.5142632401 -3.3858199876
505 1 32.6995848586 7.0182197569 -1.5783199798
506 1 31.6970020712 8.5221765289 0.2291800290
507 1 30.6944188988 10.0261340328 2.0366800364
508 1 34.2034455720 8.0208039571 -3.3858199923
509 1 33.2008613915 9.5247614581 -1.5783199843
510 1 32.1982779702 11.0287187994 0.2291800243
511 1 31.1956971451 12.5326751383 2.0366800319
512 1 34.7047204107 10.5273464836 -3.3858199967
513 1 33.7021399097 12.0313033000 -1.5783199881
514 1 32.6995633452 -12.5328673079 0.2291800200
515 1 35.2060037540 13.0338880852 -3.3858200000
516 1 30.1931219960 -12.0314962966 0.2291800399
517 1 29.1905508046 -10.5275411355 2.0366800472
518 1 31.6969898597 -11.0289118337 -1.5783199719
519 1 30.6944156605 -9.5249560590 0.2291800357
520 1 29.6918382209 -8.0210004301 2.0366800433
521 1 33.2008568114 -10.0263273355 -3.3858199836
522 1 32.1982832169 -8.5223723815 -1.5783199762
523 1 31.1957100857 -7.0184184054 0.2291800315
524 1 30.1931400835 -5.5144654510 2.0366800402
525 1 33.7021556101 -7.5197897670 -3.3858199878
526 1 32.6995856356 -6.0158365257 -1.5783199802
527 1 31.6970154425 -4.5118831877 0.2291800285
528 1 30.6944414365 -3.0079289041 2.0366800366
529 1 34.2034615414 -5.0132546644 -3.3858199924
530 1 33.2008890335 -3.5093012076 -1.5783199839
531 1 32.1983125707 -2.0053472984 0.2291800251
532 1 31.1957340688 -0.5013935357 2.0366800327
533 1 34.7047632800 -2.5067201258 -3.3858199966
534 1 33.7021859632 -1.0027665860 -1.5783199880
535 1 32.6996074199 0.5011872419 0.2291800204
536 1 31.6970278457 2.0051418683 2.0366800293
537 1 35.2060590172 -0.0001859339 -3.3858199997
538 1 34.2034776588 1.5037686506 -1.5783199917
539 1 33.2008937319 3.0077242662 0.2291800163
540 1 32.1983072643 4.5116806025 2.0366800247
541 1 35.7073442963 2.5063504379 -3.3858200036
542 1 34.7047572368 4.0103066864 -1.5783199956
543 1 33.7021700174 5.5142632403 0.2291800121
544 1 32.6995848593 7.0182197571 2.0366800199
545 1 36.2086187933 5.0128895041 -3.3858200081
546 1 35.2060311425 6.5168466521 -1.5783199998
547 1 34.2034455720 8.0208039573 0.2291800075
548 1 33.2008613918 9.5247614584 2.0366800159
549 1 36.7098895385 7.5194310679 -3.3858200123
550 1 35.7073038263 9.0233889298 -1.5783200054
551 1 34.7047204106 10.5273464840 0.2291800033
552 1 33.7021399101 12.0313033004 2.0366800113
553 1 37.2111614824 10.0259743813 -3.3858200175
554 1 36.2085807575 11.5299316712 -1.5783200097
555 1 35.2060037542 13.0338880850 0.2291799992
556 1 37.7124428000 12.5325171144 -3.3858200216
557 1 31.6969898595 -11.0289118336 2.0366800282
558 1 34.2034297670 -11.5302826972 -1.5783199923
559 1 33.2008568112 -10.0263273352 0.2291800155
560 1 32.1982832176 -8.5223723814 2.0366800238
561 1 35.7072974429 -10.5276982141 -3.3858200044
562 1 34.7047263752 -9.0237436294 -1.5783199965
563 1 33.7021556104 -7.5197897667 0.2291800118
564 1 32.6995856348 -6.0158365255 2.0366800200
565 1 36.2085997778 -8.0211607605 -3.3858200088
566 1 35.2060311998 -6.5172076792 -1.5783200001
567 1 34.2034615420 -5.0132546641 0.2291800081
568 1 33.2008890337 -3.5093012080 2.0366800160
569 1 36.7099085622 -5.5146261281 -3.3858200123
570 1 35.7073377080 -4.0106733452 -1.5783200048
571 1 34.7047632803 -2.5067201259 0.2291800038
572 1 33.7021859633 -1.0027665853 2.0366800121
573 1 37.2112145804 -3.0080928105 -3.3858200162
574 1 36.2086381870 -1.5041396883 -1.5783200086
575 1 35.2060590167 -0.0001859335 0.2291800005
576 1 34.2034776588 1.5037686508 2.0366800090
577 1 37.7125120787 -0.5015594528 -3.3858200203
578 1 36.7099294858 1.0023949849 -1.5783200117
579 1 35.7073442966 2.5063504375 0.2291799963
580 1 34.7047572364 4.0103066864 2.0366800040
581 1 38.2137964298 2.0049762716 -3.3858200231
582 1 37.2112077699 3.5089325974 -1.5783200158
583 1 36.2086187934 5.0128895040 0.2291799915
584 1 35.2060311422 6.5168466518 2.0366800000
585 1 38.7150679346 4.5115154462 -3.3858200276
586 1 37.7124776403 6.0154731795 -1.5783200199
587 1 36.7098895385 7.5194310680 0.2291799876
588 1 35.7073038261 9.0233889294 2.0366799950
589 1 39.2163334875 7.0180579131 -3.3858200316
590 1 38.2137457855 8.5220163630 -1.5783200246
591 1 37.2111614821 10.0259743811 0.2291799829
592 1 36.2085807574 11.5299316717 2.0366799902
593 1 39.7176012087 9.5246023901 -3.3858200373
594 1 38.7150199032 11.0285602415 -1.5783200298
595 1 37.7124428005 12.5325171145 0.2291799780
596 1 40.2188801089 12.0311463986 -3.3858200418
597 1 39.2163071538 -12.5330238840 -1.5783200340
598 1 34.2034297663 -11.5302826968 2.0366800079
599 1 36.7098691198 -12.0316534348 -1.5783200129
600 1 35.7072974424 -10.5276982143 0.2291799948
601 1 34.7047263759 -9.0237436299 2.0366800036
602 1 38.2137369914 -11.0290686918 -3.3858200257
603 1 37.2111681951 -9.5251143610 -1.5783200167
604 1 36.2085997777 -8.0211607607 0.2291799920
605 1 35.2060311999 -6.5172076785 2.0366799997
606 1 38.7150429064 -8.5225313489 -3.3858200300
607 1 37.7124765656 -7.0185786591 -1.5783200199
608 1 36.7099085628 -5.5146261280 0.2291799882
609 1 35.7073377082 -4.0106733455 2.0366799954
610 1 39.2163560841 -6.0159974312 -3.3858200320
611 1 38.2137872856 -4.5120453568 -1.5783200247
612 1 37.2112145808 -3.0080928106 0.2291799835
613 1 36.2086381868 -1.5041396880 2.0366799914
614 1 39.7176669532 -3.5094654559 -3.3858200356
615 1 38.7150915034 -2.0055129030 -1.5783200284
616 1 37.7125120788 -0.5015594526 0.2291799802
617 1 36.7099294857 1.0023949854 2.0366799883
618 1 40.2189669411 -1.0029333067 -3.3858200395
619 1 39.2163832280 0.5010208969 -1.5783200314
620 1 38.2137964301 2.0049762713 0.2291799760
621 1 37.2112077703 3.5089325982 2.0366799845
622 1 40.7202503632 1.5036016461 -3.3858200422
623 1 39.7176593796 3.0075581413 -1.5783200347
624 1 38.7150679344 4.5115154463 0.2291799722
625 1 37.7124776404 6.0154731799 2.0366799800
626 1 41.2215178357 4.0101409479 -3.3858200459
627 1 40.2189243900 5.5140993339 -1.5783200393
628 1 39.2163334874 7.0180579130 0.2291799682
629 1 38.2137457856 8.5220163619 2.0366799757
630 1 41.7227772010 6.5166844719 -3.3858200503
631 1 40.7201869814 8.0206437063 -1.5783200435
632 1 39.7176012081 9.5246023898 0.2291799635
633 1 38.7150199025 11.0285602419 2.0366799703
634 1 42.2240393949 9.0232304712 -3.3858200560
635 1 41.2214572081 10.5271890175 -1.5783200488
636 1 40.2188801088 12.0311463986 0.2291799579