LAMMPS data file via write_data, version 29 Aug 2024, timestep = 694, units = metal

3190 atoms
2 atom types

-100.1 100.1 xlo xhi
-13.03406325 13.03406325 ylo yhi
-3.615 3.615 zlo zhi
0 0 0 xy xz yz

Masses

1 63.55
2 63.55

Atoms # atomic

1 1 0.3562566348792586 6.501811064976751 -3.384084949187641 0 0 0
2 1 0.6103634181994835 9.060823380970005 -3.3840848171921727 0 0 0
3 1 1.0606385823670905 11.542905318346358 -3.384085052652041 0 0 0
4 1 0.2058884727146193 13.028043428026875 -1.5765849502808014 0 -1 0
5 1 -0.17926220558325667 -6.492840568096395 -3.384084774909098 0 0 0
6 1 0.5596742856273806 -3.9954056515861573 -3.384085022906995 0 0 0
7 1 1.0844828013633645 -1.5218975035050004 -3.3840850964027744 0 0 0
8 1 0.25118545677138115 -0.04119168352339386 -1.5765849543566413 0 0 0
9 1 1.7325149322243334 0.978846552194625 -3.384085332808786 0 0 0
10 1 0.7153295178537178 2.4933504615357815 -1.5765849464512647 0 0 0
11 1 2.2423926151134026 3.4815629741060707 -3.3840854527070077 0 0 0
12 1 1.3427202251296393 4.9750199899586764 -1.5765852503558513 0 0 0
13 1 0.3562566467966377 6.501811072321361 0.2309150401193015 0 0 0
14 1 2.791309756016261 6.007294387782137 -3.3840856064379277 0 0 0
15 1 1.7287791090974167 7.536534544966221 -1.5765852544679173 0 0 0
16 1 0.6103634165363729 9.060823377510248 0.23091517007016452 0 0 0
17 1 3.14757012500921 8.549019904748123 -3.3840856010261464 0 0 0
18 1 2.077202725072908 10.059685390800182 -1.5765852665720281 0 0 0
19 1 1.0606385766033668 11.542905314117915 0.23091495863852482 0 0 0
20 1 0.2058884545885178 13.028043455819914 2.038415050343635 0 -1 0
21 1 3.599655975510103 11.05010413887056 -3.384085753084233 0 0 0
22 1 2.6367487417000177 12.546859273739594 -1.576585550818517 0 0 0
23 1 1.6289016101527238 -11.998790502308347 -3.384085271403364 0 0 0
24 1 0.5198227836024074 -10.454647712760664 -1.5765848459678122 0 0 0
25 1 1.9312510847209694 -9.458677162105788 -3.384085219927839 0 0 0
26 1 0.8308687836385644 -7.949449265201351 -1.5765848974643326 0 0 0
27 1 -0.1792622101776402 -6.492840579367305 0.23091521466767412 0 0 0
28 1 2.4247436554398263 -6.990522575076743 -3.384085448371395 0 0 0
29 1 1.5266274009967162 -5.511275574466548 -1.5765853185474061 0 0 0
30 1 0.5596742879176162 -3.9954056531924262 0.2309149810766766 0 0 0
31 1 3.0536489136822382 -4.50753133739479 -3.3840857064891776 0 0 0
32 1 2.057203997474275 -3.00485217831317 -1.5765853967160801 0 0 0
33 1 1.0844828094511172 -1.521897498051679 0.23091490958296193 0 0 0
34 1 0.2511854930198325 -0.04119168848811938 2.0384150472401075 0 0 0
35 1 3.6128417352135074 -2.0202837228121524 -3.384085850759832 0 0 0
36 1 2.6897659659457815 -0.5297511650753606 -1.5765856117086312 0 0 0
37 1 1.7325149266097668 0.9788465662122281 0.23091468272721022 0 0 0
38 1 0.7153295142709624 2.4933504565100133 2.0384150397289904 0 0 0
39 1 4.206579633836512 0.4791707539988401 -3.384086014082651 0 0 0
40 1 3.2213715732279837 1.985396791401989 -1.5765857083604318 0 0 0
41 1 2.2423926174680417 3.4815629772363916 0.2309145830917834 0 0 0
42 1 1.342720239755323 4.975020005537102 2.0384147425342203 0 0 0
43 1 4.73625622683052 2.9864616554407295 -3.3840861517894045 0 0 0
44 1 3.779355949652114 4.488720211626569 -1.5765858946771927 0 0 0
45 1 2.791309752524384 6.007294385737135 0.23091439093016303 0 0 0
46 1 1.7287791160469226 7.536534550741054 2.0384147406215365 0 0 0
47 1 5.250366331410206 5.508186306299871 -3.384086295921078 0 0 0
48 1 4.216409278798835 7.028716299284801 -1.576585957320363 0 0 0
49 1 3.1475701320913174 8.549019913224862 0.23091438642755557 0 0 0
50 1 2.0772027261515973 10.059685382116657 2.0384147327131847 0 0 0
51 1 5.664008016300997 8.039025663588967 -3.3840863243508648 0 0 0
52 1 4.618791360530125 9.549930554162076 -1.5765860223190045 0 0 0
53 1 3.5996559583319367 11.050104140198853 0.23091424798077967 0 0 0
54 1 2.636748748331698 12.546859268507776 2.038414447928778 0 0 0
55 1 6.118535323356113 10.548636111682379 -3.384086444920056 0 0 0
56 1 5.117440186908226 12.052748631643547 -1.5765861948899853 0 0 0
57 1 6.598158056783959 -13.00627409625682 -3.3840865931092137 0 1 0
58 1 1.6289016101403462 -11.99879050503972 0.23091472815612094 0 0 0
59 1 0.5198227827048498 -10.454647713775627 2.0384151510449846 0 0 0
60 1 4.103102739876078 -12.502102353539426 -3.384085920236212 0 0 0
61 1 3.038339411169048 -10.98024809326143 -1.5765855985244175 0 0 0
62 1 1.9312510887503151 -9.45867715385041 0.23091477753527997 0 0 0
63 1 0.830868789388532 -7.949449254611655 2.0384151109158446 0 0 0
64 1 4.491852905088265 -9.979196106207864 -3.38408598216193 0 0 0
65 1 3.4328925942771917 -8.474865244113976 -1.5765856749808256 0 0 0
66 1 2.4247436622818554 -6.990522570890367 0.230914555099131 0 0 0
67 1 1.5266273989649335 -5.51127557525962 2.0384146753091197 0 0 0
68 1 4.984078977524803 -7.493559396430967 -3.384086142370419 0 0 0
69 1 4.019884115669839 -6.005104763313103 -1.5765859383427783 0 0 0
70 1 3.053648916650559 -4.507531337258802 0.23091430554561707 0 0 0
71 1 2.0572039965166624 -3.0048521739767047 2.0384146054987275 0 0 0
72 1 5.56233511340298 -5.008243212722068 -3.384086370809726 0 0 0
73 1 4.581884050069121 -3.5115523140404825 -1.5765861127373206 0 0 0
74 1 3.612841730988592 -2.020283719930857 0.23091416771668866 0 0 0
75 1 2.6897659528951294 -0.5297511723907586 2.0384143839948994 0 0 0
76 1 6.124212868221605 -2.517193337895881 -3.3840865455481475 0 0 0
77 1 5.168279209523774 -1.0226391769941117 -1.5765862874496808 0 0 0
78 1 4.206579641625041 0.47917075355740835 0.23091397151882287 0 0 0
79 1 3.221371573993224 1.9853967710189941 2.0384142881698817 0 0 0
80 1 6.691587677497125 -0.01782244060103899 -3.3840867117431244 0 0 0
81 1 5.7137252518685955 1.4849340995614693 -1.576586440475314 0 0 0
82 1 4.736256234589305 2.9864616529515065 0.23091385826943142 0 0 0
83 1 3.7793559222827042 4.488720226868944 2.0384141096796307 0 0 0
84 1 7.2231561703515155 2.4902540813060394 -3.3840868407878735 0 0 0
85 1 6.244677067233781 3.9952193032463033 -1.576586574417303 0 0 0
86 1 5.2503663249032115 5.508186304682875 0.23091372361861132 0 0 0
87 1 4.216409279836839 7.028716312996538 2.038414038777354 0 0 0
88 1 7.7256302883918835 5.008765203126332 -3.3840869755347938 0 0 0
89 1 6.705579199477782 6.523387939989748 -1.576586649453258 0 0 0
90 1 5.664008021539715 8.03902566345763 0.23091367307754304 0 0 0
91 1 4.618791357150144 9.54993054432545 2.038413978407346 0 0 0
92 1 8.170930478691076 7.532522428846958 -3.3840870371306115 0 0 0
93 1 7.139560212862975 9.042809363068992 -1.5765867299134602 0 0 0
94 1 6.118535319819031 10.54863611591455 0.23091355249145004 0 0 0
95 1 5.1174401692603055 12.052748624598502 2.0384138053397245 0 0 0
96 1 8.630522505342185 10.045202481524024 -3.3840871574305558 0 0 0
97 1 7.616880186982868 11.551876122823176 -1.5765868778545131 0 0 0
98 1 6.59815805291565 -13.006274102011224 0.23091339241071865 0 1 0
99 1 9.103378126107913 12.55725093095707 -3.3840872791512555 0 0 0
100 1 4.103102740791016 -12.502102358090935 0.2309140745485974 0 0 0
101 1 3.038339420587292 -10.980248097927623 2.0384143982162986 0 0 0
102 1 5.556247568896879 -11.492257740522266 -1.5765863044189237 0 0 0
103 1 4.491852906541951 -9.979196115631613 0.2309140068607638 0 0 0
104 1 3.4328925866546314 -8.474865243832593 2.038414320340047 0 0 0
105 1 7.03221871687613 -10.491606436231965 -3.38408669200134 0 0 0
106 1 5.994521393075203 -8.987744967210762 -1.576586402614804 0 0 0
107 1 4.984078978509572 -7.493559397945139 0.23091384959075775 0 0 0
108 1 4.0198841250835216 -6.00510477314949 2.038414057439956 0 0 0
109 1 7.525072742012043 -7.997928865650586 -3.3840868619988824 0 0 0
110 1 6.538399904704988 -6.503665923004014 -1.5765866091238614 0 0 0
111 1 5.562335115615937 -5.0082432108251265 0.23091362681557848 0 0 0
112 1 4.5818840603672015 -3.5115523274543534 2.038413886936638 0 0 0
113 1 8.076494006099438 -5.508363352012157 -3.384087026982052 0 0 0
114 1 7.096669434657741 -4.011947397350912 -1.5765868013757516 0 0 0
115 1 6.124212867432888 -2.5171933444657224 0.2309134660500816 0 0 0
116 1 5.168279223016313 -1.0226391632484297 2.0384137071744797 0 0 0
117 1 8.630986470392358 -3.0146651360312404 -3.3840872273858364 0 0 0
118 1 7.661129694577994 -1.5176951739826094 -1.5765869712676095 0 0 0
119 1 6.691587685891335 -0.017822444811095295 0.23091327652580046 0 0 0
120 1 5.713725281449939 1.4849340948743919 2.038413556048473 0 0 0
121 1 9.18307839503646 -0.5144751632973392 -3.3840873876573565 0 0 0
122 1 8.204002172349476 0.9873847078710103 -1.5765871189519316 0 0 0
123 1 7.223156169006401 2.4902540849580728 0.23091314756304318 0 0 0
124 1 6.244677055643848 3.99521929628453 2.0384134210574905 0 0 0
125 1 9.711159356746379 1.9934342713551967 -3.384087530262675 0 0 0
126 1 8.723666245365251 3.4988888406053977 -1.576587245699857 0 0 0
127 1 7.725630285917788 5.008765207329665 0.2309130508763195 0 0 0
128 1 6.705579208636763 6.523387954488692 2.0384133487415794 0 0 0
129 1 10.210566598056857 4.50924079313714 -3.384087643143223 0 0 0
130 1 9.197587250129772 6.020294913475924 -1.576587353204259 0 0 0
131 1 8.170930471102636 7.532522433653055 0.23091295461008723 0 0 0
132 1 7.1395602162914855 9.042809367008358 2.038413274726585 0 0 0
133 1 10.673982486440082 7.028369766070638 -3.3840877192250147 0 0 0
134 1 9.650892258212593 8.537725426421359 -1.5765874339701695 0 0 0
135 1 8.630522516476162 10.0452024804819 0.23091286068312686 0 0 0
136 1 7.616880177827909 11.55187615406758 2.038413127507672 0 0 0
137 1 11.139699239460526 9.541617733116107 -3.384087834260713 0 0 0
138 1 10.122888918099761 11.048866936179666 -1.5765875688195632 0 0 0
139 1 9.103378119181329 12.557250929016215 0.2309127124264196 0 0 0
140 1 11.612755712743692 12.052814071936291 -3.384087959597825 0 0 0
141 1 5.556247553204969 -11.492257755081424 2.0384136892880758 0 0 0
142 1 8.073264904744406 -12.000842269052427 -1.5765869929300067 0 0 0
143 1 7.032218715866733 -10.491606435807588 0.23091330887463737 0 0 0
144 1 5.994521366956363 -8.987744983313075 2.038413588189966 0 0 0
145 1 9.561345390091859 -11.000333414813962 -3.384087397236019 0 0 0
146 1 8.535651759758537 -9.496439127491938 -1.5765871091513528 0 0 0
147 1 7.5250727408761975 -7.997928861100967 0.2309131518642305 0 0 0
148 1 6.538399897232807 -6.5036659325575705 2.038413386621085 0 0 0
149 1 10.05600365326734 -8.502421651738784 -3.38408752761197 0 0 0
150 1 9.060731800996237 -7.00489959542756 -1.5765872785519541 0 0 0
151 1 8.076494006116576 -5.508363358251403 0.23091296483167317 0 0 0
152 1 7.096669436998724 -4.011947404744824 2.0384131918336017 0 0 0
153 1 10.591778130176976 -6.008969233027181 -3.3840877170675046 0 0 0
154 1 9.608392537737274 -4.5115038834711445 -1.5765874726444258 0 0 0
155 1 8.630986473104102 -3.014665135228448 0.23091278559227257 0 0 0
156 1 7.66112968935235 -1.5176951630101438 2.038413027678459 0 0 0
157 1 11.13684649854467 -3.5129664350240226 -3.384087899295903 0 0 0
158 1 10.15924164469888 -2.0144327340605646 -1.5765876449554082 0 0 0
159 1 9.183078399621735 -0.5144751607452651 0.23091261114631292 0 0 0
160 1 8.204002156202563 0.9873846960655239 2.0384128778958135 0 0 0
161 1 11.678412640569121 -1.0117883446996139 -3.384088058829459 0 0 0
162 1 10.695896957655037 0.4901076833866238 -1.5765878003602343 0 0 0
163 1 9.711159349610398 1.993434274481599 0.2309124848063613 0 0 0
164 1 8.72366623721932 3.4988888287893847 2.038412758169235 0 0 0
165 1 12.20207545827941 1.4958084297564227 -3.384088215329597 0 0 0
166 1 11.210217429340958 3.0011424195857384 -1.5765879173195014 0 0 0
167 1 10.210566598624126 4.509240797300615 0.23091233818420154 0 0 0
168 1 9.197587261303426 6.020294915022534 2.0384126489559566 0 0 0
169 1 12.701318832171495 4.0094726245617185 -3.3840883269013893 0 0 0
170 1 11.692249313815978 5.5183990930171465 -1.576588048725947 0 0 0
171 1 10.673982489665036 7.028369769557505 0.23091224359375742 0 0 0
172 1 9.650892269029512 8.53772541686041 2.0384125686513883 0 0 0
173 1 13.175784936145348 6.525496672762918 -3.384088429773971 0 0 0
174 1 12.158048059195806 8.033937806990027 -1.5765881283793919 0 0 0
175 1 11.139699240971566 9.541617735693004 0.23091215993923345 0 0 0
176 1 10.122888906117055 11.048866943602315 2.038412439605805 0 0 0
177 1 13.647519310012555 9.038296334344539 -3.384088545593035 0 0 0
178 1 12.631062095813988 10.545413823393543 -1.5765882440768346 0 0 0
179 1 11.61275570410092 12.052814071603345 0.2309120401604223 0 0 0
180 1 14.123418126534844 11.548763413957795 -3.3840886467558486 0 0 0
181 1 13.10470376765295 -13.012722648692243 -1.5765883651905723 0 1 0
182 1 8.07326490073251 -12.000842268493633 2.03841299954283 0 0 0
183 1 10.589501115161184 -12.507447102721905 -1.5765876745374334 0 0 0
184 1 9.561345393486334 -11.000333412554525 0.23091260147745055 0 0 0
185 1 8.535651756290335 -9.496439149525685 2.038412886242744 0 0 0
186 1 12.08404999155971 -11.506819547293107 -3.3840880687318293 0 0 0
187 1 11.065506299968916 -10.002983770931603 -1.5765877895485227 0 0 0
188 1 10.056003653273166 -8.502421643792331 0.23091247302172924 0 0 0
189 1 9.060731787297499 -7.0048995866359975 2.0384127184814105 0 0 0
190 1 12.580477431223557 -9.006471069790878 -3.384088216421215 0 0 0
191 1 11.581572125665744 -7.507042342631761 -1.5765879541147356 0 0 0
192 1 10.591778136789827 -6.008969228994134 0.2309122789550071 0 0 0
193 1 9.608392545375693 -4.51150387712541 2.038412527619515 0 0 0
194 1 13.106442780491832 -6.509960421480136 -3.384088374815591 0 0 0
195 1 12.11906497152954 -5.011286177338485 -1.5765881401654591 0 0 0
196 1 11.136846488325403 -3.5129664405083165 0.23091208930926915 0 0 0
197 1 10.15924165667434 -2.014432728382607 2.0384123431730834 0 0 0
198 1 13.642781321087654 -4.011959242178426 -3.384088560683598 0 0 0
199 1 12.659838432247227 -2.512311007045332 -1.576588317982725 0 0 0
200 1 11.678412648452493 -1.0117883490042665 0.23091195422567884 0 0 0
201 1 10.69589694997697 0.49010768354318657 2.0384121959733785 0 0 0
202 1 14.176322836678068 -1.5098667171148143 -3.3840887319575055 0 0 0
203 1 13.190229066719553 -0.0077016462065486735 -1.5765884796109546 0 0 0
204 1 12.202075455235956 1.4958084395552973 0.23091180974581452 0 0 0
205 1 11.210217435488232 3.001142446964659 2.038412081325269 0 0 0
206 1 14.695953436779448 0.9974343308124567 -3.384088880921029 0 0 0
207 1 13.701595585309533 2.502500672806974 -1.5765886207062183 0 0 0
208 1 12.701318832067855 4.009472632066439 0.23091166505205143 0 0 0
209 1 11.692249290494942 5.518399102933996 2.038411956151231 0 0 0
210 1 15.195822052354515 3.5094442738351237 -3.3840890288434013 0 0 0
211 1 14.18908014628417 5.017027285649236 -1.5765887415750914 0 0 0
212 1 13.175784938208452 6.525496657277811 0.2309115653942311 0 0 0
213 1 12.158048047762563 8.033937794590456 2.0384118685726214 0 0 0
214 1 15.67749119565579 6.023287934915475 -3.384089139346755 0 0 0
215 1 14.663444596902153 7.530921886992045 -1.5765888301817204 0 0 0
216 1 13.647519311461267 9.038296328456463 0.23091145669645705 0 0 0
217 1 12.631062090563361 10.545413817524585 2.038411756842096 0 0 0
218 1 16.154610305153142 8.53529768784104 -3.3840892398718343 0 0 0
219 1 15.139739256300388 10.04205406086979 -1.576588937246407 0 0 0
220 1 14.12341811811838 11.548763416750907 0.23091135709860822 0 0 0
221 1 13.104703753374565 -13.012722644215026 2.038411637125271 0 1 0
222 1 16.63411218620928 11.045130901701901 -3.384089363199309 0 0 0
223 1 15.618702218987906 12.551040755368762 -1.5765890541089056 0 0 0
224 1 10.589501111453501 -12.507447100809236 2.0384123323934595 0 0 0
225 1 12.084049989341551 -11.506819549099875 0.23091192313136968 0 0 0
226 1 11.065506313687834 -10.002983780187702 2.0384122053228526 0 0 0
227 1 14.602735003286313 -12.011868851657706 -3.3840887500903736 0 0 0
228 1 13.588656515511914 -10.508094430922936 -1.576588473711911 0 0 0
229 1 12.580477436807897 -9.006471062305048 0.23091179136568118 0 0 0
230 1 11.581572115013813 -7.5070423452046295 2.0384120477447616 0 0 0
231 1 15.100504955495992 -9.50997916877778 -3.3840888929943027 0 0 0
232 1 14.099927347475202 -8.00934748577207 -1.5765886347407474 0 0 0
233 1 13.106442788751039 -6.509960420464984 0.2309116138873635 0 0 0
234 1 12.11906498477694 -5.011286178318619 2.0384118551449126 0 0 0
235 1 15.619960250939855 -7.011157296537316 -3.384089062313723 0 0 0
236 1 14.62916639066016 -5.5114163714794335 -1.576588830926017 0 0 0
237 1 13.642781316792437 -4.011959242057532 0.23091142502716008 0 0 0
238 1 12.65983843230039 -2.512311026782127 2.0384116848910026 0 0 0
239 1 16.148979465449457 -4.511480169639784 -3.384089271971043 0 0 0
240 1 15.161959821046679 -3.01098103771921 -1.576589009558589 0 0 0
241 1 14.176322833603052 -1.5098667150638931 0.23091123717641232 0 0 0
242 1 13.190229078071042 -0.007701684508653273 2.0384115175467747 0 0 0
243 1 16.676137631179515 -2.0086025371008684 -3.3840894316542447 0 0 0
244 1 15.686906738618916 -0.5061516775378099 -1.5765891660658826 0 0 0
245 1 14.695953445447202 0.9974343356939439 0.23091110653060493 0 0 0
246 1 13.701595582811393 2.5025006604276516 2.038411384381604 0 0 0
247 1 17.192386359093902 0.4984519558413858 -3.3840895985159847 0 0 0
248 1 16.196368072466868 2.003249261677805 -1.576589328700605 0 0 0
249 1 15.195822051103377 3.5094442726426696 0.23091095708944967 0 0 0
250 1 14.189080145321796 5.017027275033795 2.0384112618909374 0 0 0
251 1 17.692943580925956 3.0091944265293566 -3.3840897267848065 0 0 0
252 1 16.687660514144028 4.515868192811622 -1.5765894353891987 0 0 0
253 1 15.677491199188097 6.023287932582603 0.23091086738960107 0 0 0
254 1 14.663444601384057 7.530921862122954 2.038411162610474 0 0 0
255 1 18.17957503505812 5.521436819496939 -3.3840898298575537 0 0 0
256 1 17.168194826776343 7.0283832712729986 -1.5765895368165788 0 0 0
257 1 16.15461030771479 8.53529768618701 0.23091076559093418 0 0 0
258 1 15.139739241933981 10.042054036196594 2.0384110621518374 0 0 0
259 1 18.66128985806901 8.032601069147747 -3.38408993197265 0 0 0
260 1 17.648301736102127 9.538944942564024 -1.5765896571312494 0 0 0
261 1 16.63411218090029 11.04513089453152 0.2309106466152373 0 0 0
262 1 15.61870221551419 12.551040752178652 2.0384109480981554 0 0 0
263 1 19.14435279226973 10.541887182069447 -3.3840900710266597 0 0 0
264 1 18.131484262331085 12.047328905676414 -1.576589770314695 0 0 0
265 1 19.632561528881794 -13.019436471229204 -3.3840901937376806 0 1 0
266 1 14.60273501008514 -12.011868856066082 0.2309112464008173 0 0 0
267 1 13.588656511369763 -10.50809443094773 2.0384115173325985 0 0 0
268 1 17.11866158636765 -12.515975398810008 -3.3840894833309623 0 0 0
269 1 16.107510124822596 -11.012224242089923 -1.5765891909572527 0 0 0
270 1 15.100504952004627 -9.509979170125845 0.2309110971074247 0 0 0
271 1 14.099927348887817 -8.009347470669008 2.03841136552763 0 0 0
272 1 17.617351278875105 -10.013019694291875 -3.3840896300749064 0 0 0
273 1 16.615935258019462 -8.511571394879997 -1.5765893431721916 0 0 0
274 1 15.619960258921296 -7.011157301488471 0.2309109241067034 0 0 0
275 1 14.629166378891298 -5.511416371330737 2.038411173580801 0 0 0
276 1 18.132282865910483 -7.512457966353078 -3.384089776892584 0 0 0
277 1 17.138788636246133 -6.011840814280434 -1.5765895127250191 0 0 0
278 1 16.148979465702865 -4.511480171283132 0.23091074568889744 0 0 0
279 1 15.16195980244889 -3.0109810172520106 2.038410985813327 0 0 0
280 1 18.655407474710742 -5.011407739706973 -3.3840899583017032 0 0 0
281 1 17.665165503533885 -3.510233016477075 -1.576589680671493 0 0 0
282 1 16.676137637294048 -2.008602532168629 0.2309105650866507 0 0 0
283 1 15.6869067267763 -0.506151677995831 2.038410837629372 0 0 0
284 1 19.17742520111655 -2.507872228451829 -3.3840900956552913 0 0 0
285 1 18.185591069087636 -1.005169212525992 -1.576589849751458 0 0 0
286 1 17.19238636295401 0.4984519645063923 0.230910432390086 0 0 0
287 1 16.19636805915556 2.003249258337318 2.038410675055864 0 0 0
288 1 19.690904543628378 -0.0010102880825595406 -3.384090295427948 0 0 0
289 1 18.693662478148 1.5035611336229113 -1.5765899952017493 0 0 0
290 1 17.692943591617848 3.009194430721175 0.2309102820713259 0 0 0
291 1 16.687660507718277 4.515868186209646 2.0384105587240526 0 0 0
292 1 20.19200670026082 2.5087622483598793 -3.384090405428103 0 0 0
293 1 19.187668313915324 4.014787163327748 -1.576590117913658 0 0 0
294 1 18.179575038095777 5.521436822298705 0.23091014937942883 0 0 0
295 1 17.168194832576006 7.028383258963055 2.0384104595208465 0 0 0
296 1 20.68219856081822 5.019789235435473 -3.3840905184766816 0 0 0
297 1 19.672807700135564 6.52616162627058 -1.5765902383791215 0 0 0
298 1 18.661289858036227 8.032601068806708 0.23091005027876293 0 0 0
299 1 17.648301745941197 9.538944913993861 2.0384103396974154 0 0 0
300 1 21.16773508346799 7.530166742710671 -3.3840906369351553 0 0 0
301 1 20.156550389308123 9.036116102442326 -1.576590367709697 0 0 0
302 1 19.144352794301696 10.541887181499318 0.2309099441992979 0 0 0
303 1 18.13148424325881 12.04732889593006 2.0384102239999127 0 0 0
304 1 21.654002413079496 10.03898516857688 -3.384090749728597 0 0 0
305 1 20.64314390806834 11.544104154217807 -1.5765904776748636 0 0 0
306 1 19.63256153403036 -13.019436472652435 0.23090983761684641 0 1 0
307 1 22.144909496770268 12.545692688475592 -3.3840908713345117 0 0 0
308 1 17.11866157799558 -12.515975404546774 0.23091051192032214 0 0 0
309 1 16.107510115103295 -11.012224238684007 2.0384108057861687 0 0 0
310 1 18.623420969526947 -11.515675958047044 -1.5765898906848856 0 0 0
311 1 17.617351286448383 -10.01301968522493 0.23091037354910676 0 0 0
312 1 16.61593524912422 -8.511571402405519 2.0384106569807154 0 0 0
313 1 20.131858954332174 -10.515694288123319 -3.3840903376823173 0 0 0
314 1 19.12998308342918 -9.013660917650387 -1.5765900537758955 0 0 0
315 1 18.132282872662614 -7.512457966393175 0.23091020824055963 0 0 0
316 1 17.138788645064054 -6.011840835591361 2.0384104866623804 0 0 0
317 1 20.643531286312523 -8.013812797845828 -3.3840904595892387 0 0 0
318 1 19.64795701648191 -6.512494210873779 -1.5765902074108926 0 0 0
319 1 18.655407478211956 -5.011407734197547 0.23091004601487589 0 0 0
320 1 17.66516548816108 -3.5102330208443178 2.038410325171814 0 0 0
321 1 21.161990051005333 -5.511653311290117 -3.3840906362104493 0 0 0
322 1 20.169183372800106 -4.009933787063716 -1.576590366288004 0 0 0
323 1 19.177425210771503 -2.507872232074961 0.23090988756323205 0 0 0
324 1 18.185591063106614 -1.0051692365863278 2.03841015111629 0 0 0
325 1 21.679865694167006 -3.0075716870019154 -3.3840907654636228 0 0 0
326 1 20.685914994863637 -1.504655296768842 -1.5765905157792184 0 0 0
327 1 19.69090454130685 -0.001010287647526198 0.2309097285376142 0 0 0
328 1 18.693662496536632 1.503561136383988 2.0384100081175105 0 0 0
329 1 22.191088340700418 -0.5008523676664964 -3.3840909207710848 0 0 0
330 1 21.192887340506132 1.003543646927893 -1.5765906766282862 0 0 0
331 1 20.192006708665318 2.508762247066983 0.2309096152124519 0 0 0
332 1 19.187668289687196 4.014787169120387 2.03840988216238 0 0 0
333 1 22.69256518305987 2.008177204863088 -3.384091056708793 0 0 0
334 1 21.68885086299322 3.5137230856248234 -1.5765907896282538 0 0 0
335 1 20.682198558203012 5.019789244288011 0.23090949719058018 0 0 0
336 1 19.67280768707647 6.526161625378192 2.038409762115385 0 0 0
337 1 23.185383489359268 4.518262231183728 -3.384091187988779 0 0 0
338 1 22.17750750669566 6.0241620862282925 -1.5765909020268776 0 0 0
339 1 21.167735080817906 7.530166740656247 0.2309093597643708 0 0 0
340 1 20.156550386260804 9.036116113524647 2.0384096361010324 0 0 0
341 1 23.674049693555887 7.027951235544604 -3.384091302509442 0 0 0
342 1 22.664454167212284 8.533550247690963 -1.576591036462783 0 0 0
343 1 21.654002405802913 10.038985161348721 0.2309092482418572 0 0 0
344 1 20.64314392221179 11.544104162355625 2.0384095242975024 0 0 0
345 1 24.163071445258623 9.536373670550278 -3.384091432244593 0 0 0
346 1 23.153823428171435 11.041256704493707 -1.5765911384723925 0 0 0
347 1 22.144909505817367 12.545692694176461 0.23090911612784323 0 0 0
348 1 24.656042283862064 12.043041673783732 -3.3840915385488644 0 0 0
349 1 18.623420951481094 -11.515675955203905 2.0384101025270343 0 0 0
350 1 21.13720972454243 -12.018646436069194 -1.576590592663833 0 0 0
351 1 20.13185896074488 -10.515694276402039 0.2309096787254281 0 0 0
352 1 19.12998306846066 -9.01366090364945 2.038409958263935 0 0 0
353 1 22.644610425538445 -11.018089076659255 -3.384090999157413 0 0 0
354 1 21.64245965691356 -9.515621527149237 -1.576590739682555 0 0 0
355 1 20.643531290032044 -8.013812797906967 0.23090953110279236 0 0 0
356 1 19.64795703368175 -6.512494216185101 2.0384097844044344 0 0 0
357 1 23.15387022029489 -8.51519664113319 -3.3840911505232776 0 0 0
358 1 22.156703654884495 -7.013322663209534 -1.5765908759034812 0 0 0
359 1 21.161990053845358 -5.511653308820976 0.23090937424944566 0 0 0
360 1 20.16918336539878 -4.009933770633781 2.0384096395179014 0 0 0
361 1 23.668661518226344 -6.012148260660465 -3.3840912931188427 0 0 0
362 1 22.67381603812288 -4.509988388811973 -1.5765910320379855 0 0 0
363 1 21.67986569162521 -3.0075716855304666 0.23090920815406446 0 0 0
364 1 20.685914986411944 -1.5046553122061024 2.0384094822392647 0 0 0
365 1 24.183208365322685 -3.5076157769414884 -3.3840914599210703 0 0 0
366 1 23.187550533128757 -2.0045206255421295 -1.5765911892706355 0 0 0
367 1 22.191088341158576 -0.5008523581347077 0.2309090672794734 0 0 0
368 1 21.192887366181168 1.0035436160767528 2.0384093231285316 0 0 0
369 1 24.69259150624174 -1.0009973100873584 -3.3840916179929175 0 0 0
370 1 23.693614663060416 0.5032677432053045 -1.5765913385910486 0 0 0
371 1 22.69256518912715 2.0081772107598628 0.23090892902637164 0 0 0
372 1 21.68885086821875 3.5137230573101537 2.0384092118925126 0 0 0
373 1 25.194300317159318 1.5074621066592382 -3.3840917424147303 0 0 0
374 1 24.191002881640898 3.0126467665114784 -1.5765914669615129 0 0 0
375 1 23.18538348618621 4.518262224236599 0.23090880903968755 0 0 0
376 1 22.177507511074154 6.024162080798911 2.0384090927077803 0 0 0
377 1 25.68909145455872 4.016808492855704 -3.384091845274959 0 0 0
378 1 24.682383384092063 5.5223231062141185 -1.5765915764633995 0 0 0
379 1 23.67404969448465 7.027951231258394 0.23090871679193156 0 0 0
380 1 22.664454155875376 8.533550241684031 2.0384089651228385 0 0 0
381 1 26.180296165680275 6.5259139415058645 -3.3840919795337454 0 0 0
382 1 25.172044781886797 8.031213202275987 -1.5765917026986724 0 0 0
383 1 24.163071436391235 9.536373668510295 0.23090857598454745 0 0 0
384 1 23.15382343993521 11.041256706369085 2.038408859163789 0 0 0
385 1 26.671626325694845 9.034003844238656 -3.384092114927093 0 0 0
386 1 25.663675453409994 10.538706861286522 -1.5765918247172277 0 0 0
387 1 24.656042278106625 12.043041675255468 0.2309084497102271 0 0 0
388 1 27.166213210465514 11.540656247594429 -3.384092199295465 0 0 0
389 1 26.160397852553388 -13.023617876237305 -1.5765919466913465 0 1 0
390 1 21.137209741386798 -12.018646427455565 2.038409405465678 0 0 0
391 1 23.6494116222689 -12.521264590184783 -1.5765912656463428 0 0 0
392 1 22.64461043249689 -11.018089068469317 0.2309090096622564 0 0 0
393 1 21.642459643475945 -9.515621503654717 2.0384092645709653 0 0 0
394 1 25.15602058549588 -11.52026957685861 -3.384091669707225 0 0 0
395 1 24.153693807583437 -10.01747250641995 -1.5765913973654486 0 0 0
396 1 23.15387022647124 -8.515196647385638 0.23090884752611043 0 0 0
397 1 22.156703662419375 -7.013322665570096 2.0384091140528606 0 0 0
398 1 25.66346019579116 -9.01659578082308 -3.384091811479459 0 0 0
399 1 24.66507336186983 -7.514283938285112 -1.5765915533451536 0 0 0
400 1 23.66866152302812 -6.012148258504725 0.23090872758125056 0 0 0
401 1 22.673816015902702 -4.509988380635848 2.038408960642762 0 0 0
402 1 26.175375176245993 -6.51283833555801 -3.384091958174526 0 0 0
403 1 25.178913171768045 -5.0103232382941325 -1.5765916830332218 0 0 0
404 1 24.183208364560883 -3.5076157730710964 0.23090857019504774 0 0 0
405 1 23.18755049846372 -2.004520621717889 2.038408813390942 0 0 0
406 1 26.68725444822502 -4.007935220108278 -3.384092079613162 0 0 0
407 1 25.69022432587866 -2.504690764600804 -1.5765918375698418 0 0 0
408 1 24.6925915042805 -1.000997310973613 0.23090841236395004 0 0 0
409 1 23.693614662817367 0.5032677443729145 2.038408666489262 0 0 0
410 1 27.19513663499562 -1.501384955500626 -3.3840922318581406 0 0 0
411 1 26.195522521417317 0.002784507258297708 -1.576591991254289 0 0 0
412 1 25.194300313786897 1.5074621108204482 0.2309082702128102 0 0 0
413 1 24.191002903110146 3.012646780674272 2.03840853648416 0 0 0
414 1 27.696971830284724 1.0066359884463107 -3.3840923942703194 0 0 0
415 1 26.69395403432526 2.511544824388709 -1.5765921254066635 0 0 0
416 1 25.68909145854859 4.016808497525398 0.23090814433436915 0 0 0
417 1 24.6823833927794 5.52232310147023 2.0384084272737613 0 0 0
418 1 28.19326201107748 3.5153993780692137 -3.3840925241765816 0 0 0
419 1 27.187460656453055 5.020602223024101 -1.5765922607250584 0 0 0
420 1 26.180296160932045 6.525913941739388 0.23090802187302487 0 0 0
421 1 25.172044781562818 8.031213197464107 2.038408300292749 0 0 0
422 1 28.68651239171038 6.024019317119938 -3.3840926811891316 0 0 0
423 1 27.67937257962231 7.529067866729365 -1.5765923706055498 0 0 0
424 1 26.67162631944028 9.034003839436815 0.23090790090359142 0 0 0
425 1 25.663675456086082 10.53870686681316 2.038408165902405 0 0 0
426 1 29.179748181102582 8.53183201111766 -3.384092757513018 0 0 0
427 1 28.172843863458297 10.036393927418631 -1.5765924862098002 0 0 0
428 1 27.1662132076127 11.5406562497395 0.23090779495519057 0 0 0
429 1 26.160397856641026 -13.02361789100689 2.0384080523691597 0 1 0
430 1 29.67561912203098 11.038477906129215 -3.3840928630563316 0 0 0
431 1 28.67043840225446 12.542358560205757 -1.57659260158946 0 0 0
432 1 23.649411634519723 -12.521264600650664 2.0384087337432457 0 0 0
433 1 25.156020594146128 -11.520269578923926 0.23090834190728277 0 0 0