LAMMPS data file via write_data, version 29 Aug 2024, timestep = 711, units = metal

3190 atoms
2 atom types

-100.1 100.1 xlo xhi
-13.03406325 13.03406325 ylo yhi
-3.615 3.615 zlo zhi
0 0 0 xy xz yz

Masses

1 63.55
2 63.55

Atoms # atomic

1 1 0.21852263970197328 6.486315175923698 -3.3800827145196424 0 0 0
2 1 0.5917611088012507 9.044711542696556 -3.380082730876613 0 0 0
3 1 1.0680983293792679 11.521390013216577 -3.380082718878438 0 0 0
4 1 0.21852117422011474 13.003346801976742 -1.5725827319891685 0 0 0
5 1 0.21852013820118543 -6.547747693242453 -3.3800827276590963 0 0 0
6 1 0.5917590886177209 -3.9893510320615757 -3.3800827356980614 0 0 0
7 1 1.0680977239315155 -1.5126727253926777 -3.3800827076450224 0 0 0
8 1 0.21852163849011674 -0.030716033160526734 -1.5725826979257214 0 0 0
9 1 1.6674948302461274 1.000275225530121 -3.3800827091654733 0 0 0
10 1 0.5917610892106069 2.5276802967413605 -1.5725827112471331 0 0 0
11 1 2.0688037733893765 3.52055130120136 -3.3800827249529117 0 0 0
12 1 1.0680995375001743 5.004358489333052 -1.5725827166286586 0 0 0
13 1 0.21852265839304152 6.4863151700024435 0.23491729054994576 0 0 0
14 1 2.655789426103894 6.001834892427764 -3.3800827389407786 0 0 0
15 1 1.6674954797173172 7.51730643739503 -1.5725827364984373 0 0 0
16 1 0.5917611046677393 9.044711542565283 0.23491727969351373 0 0 0
17 1 3.1141909503533327 8.529239724502483 -3.380082760236788 0 0 0
18 1 2.0688031050414537 10.037582734267156 -1.5725827374941954 0 0 0
19 1 1.0680983378281326 11.521390022367116 0.2349172565927909 0 0 0
20 1 0.21852116337522887 13.003346777585387 2.04241727519005 0 0 0
21 1 3.604334491702261 11.02518065749114 -3.380082784305416 0 0 0
22 1 2.655787633360589 12.518866656540245 -1.5725827655202116 0 0 0
23 1 1.6674934736401639 -12.03378818708257 -3.380082745798685 0 0 0
24 1 0.5917591515836875 -10.506382985646734 -1.5725827260232947 0 0 0
25 1 2.0688009846065682 -9.513511684631688 -3.3800827544167134 0 0 0
26 1 1.068096567676136 -8.029704430369986 -1.5725827341998084 0 0 0
27 1 0.2185201323597994 -6.547747676767516 0.23491725667753663 0 0 0
28 1 2.6557862807647012 -7.032227758177616 -3.380082765430549 0 0 0
29 1 1.6674928111819014 -5.516756168286223 -1.5725827280241609 0 0 0
30 1 0.59175909028707 -3.9893510234899203 0.23491724689036642 0 0 0
31 1 3.1141885123839756 -4.504822760541916 -3.3800827352137297 0 0 0
32 1 2.0688016055997167 -2.996479844311322 -1.572582736700054 0 0 0
33 1 1.0680977282625008 -1.5126727216154947 0.23491728584002564 0 0 0
34 1 0.2185216427360075 -0.03071602353884373 2.0424173000100048 0 0 0
35 1 3.604333827738543 -2.008882041280062 -3.3800827288994184 0 0 0
36 1 2.655788100665575 -0.5151962259655747 -1.5725827409640776 0 0 0
37 1 1.6674948354226444 1.0002752175245888 0.23491729291344204 0 0 0
38 1 0.5917610989195197 2.527680267483353 2.042417289167918 0 0 0
39 1 4.1453111726657 0.4988486979750366 -3.3800827742611936 0 0 0
40 1 3.114190917617961 2.0122084486165637 -1.5725827487741093 0 0 0
41 1 2.068803767855499 3.5205512980733022 0.23491728086606262 0 0 0
42 1 1.0680995344765023 5.004358476031323 2.0424172826245464 0 0 0
43 1 4.604825168074257 3.011543197734822 -3.380082777487529 0 0 0
44 1 3.604335884460852 4.508149048955259 -1.5725827286124983 0 0 0
45 1 2.6557894093045746 6.001834918643349 0.2349172588593871 0 0 0
46 1 1.667495451116622 7.5173064252183845 2.042417276528079 0 0 0
47 1 5.138055933832106 5.5083070706774055 -3.380082777429472 0 0 0
48 1 4.145311998994771 7.015879872024344 -1.5725827647648742 0 0 0
49 1 3.1141909535900396 8.529239735999104 0.23491725472548142 0 0 0
50 1 2.068803105763351 10.037582706214296 2.0424172509711154 0 0 0
51 1 5.625739425526788 8.022935288303986 -3.380082798761004 0 0 0
52 1 4.604824392482186 9.528574619657975 -1.5725827972359359 0 0 0
53 1 3.6043344978328946 11.025180656128311 0.23491724656592664 0 0 0
54 1 2.6557876106317337 12.518866630641961 2.0424172364434323 0 0 0
55 1 6.121360996787473 10.525583962713165 -3.380082835035585 0 0 0
56 1 5.138053765817091 12.025338854036308 -1.572582810784046 0 0 0
57 1 6.638731418660868 13.032089052571004 -3.3800828635553284 0 0 0
58 1 1.6674934703147244 -12.033788186911424 0.23491725412690814 0 0 0
59 1 0.5917591584424713 -10.50638299799619 2.042417274131548 0 0 0
60 1 4.1453096131330796 -12.53521464909033 -3.3800828057855976 0 0 0
61 1 3.114188593328265 -11.021854705188256 -1.5725827730682151 0 0 0
62 1 2.0688009846514746 -9.513511693283968 0.23491725069286656 0 0 0
63 1 1.0680965706559107 -8.029704418743787 2.04241726101824 0 0 0
64 1 4.604821841650477 -10.022519637587221 -3.3800828214390415 0 0 0
65 1 3.604332432178353 -8.525913661490193 -1.5725827683203317 0 0 0
66 1 2.6557862818279574 -7.032227761868127 0.23491725771002553 0 0 0
67 1 1.667492792077212 -5.516756159837112 2.0424172697286784 0 0 0
68 1 5.138052072112259 -7.525755353997461 -3.380082805373398 0 0 0
69 1 4.145308758139407 -6.018182557574802 -1.5725827861292248 0 0 0
70 1 3.1141885233420794 -4.504822767816256 0.23491726266306318 0 0 0
71 1 2.0688016023796365 -2.9964798652288156 2.0424172662908178 0 0 0
72 1 5.625736497380402 -5.011126992281463 -3.3800828105711935 0 0 0
73 1 4.604822624394643 -3.505487844022044 -1.5725827758210196 0 0 0
74 1 3.604333835933275 -2.008882039438788 0.23491724775885103 0 0 0
75 1 2.6557880953121042 -0.5151962915849477 2.0424172693201736 0 0 0
76 1 6.121360239863222 -2.5084785445384448 -3.380082819281668 0 0 0
77 1 5.138054286275988 -1.0087239656653963 -1.5725827722400976 0 0 0
78 1 4.145311171706169 0.49884870071792875 0.23491723926041205 0 0 0
79 1 3.1141909198806843 2.012208436504416 2.0424172600282917 0 0 0
80 1 6.638733338787304 -0.0019740363364348923 -3.3800828625580372 0 0 0
81 1 5.625739358710462 1.5059040552958098 -1.5725827974239694 0 0 0
82 1 4.6048251667942 3.0115431970549036 0.23491721392633408 0 0 0
83 1 3.6043358965872727 4.508149047994843 2.042417256210063 0 0 0
84 1 7.123275735985814 2.507330055664317 -3.380082877175026 0 0 0
85 1 6.121362675489863 4.00855239123503 -1.5725828181638308 0 0 0
86 1 5.138055930916039 5.508307058114243 0.2349172299299884 0 0 0
87 1 4.145312001410858 7.01587986494698 2.042417228169901 0 0 0
88 1 7.636396041045259 5.010050615862005 -3.3800828483511207 0 0 0
89 1 6.6387343405159385 6.515057015252269 -1.5725828242466182 0 0 0
90 1 5.625739435122284 8.022935287158434 0.23491718594061453 0 0 0
91 1 4.604824413680774 9.528574616305592 2.0424172086467443 0 0 0
92 1 8.13344315920068 7.5196358052971295 -3.3800829027143506 0 0 0
93 1 7.123274840008463 9.024361423734808 -1.572582866455379 0 0 0
94 1 6.1213610022885945 10.525583964380433 0.2349171846494945 0 0 0
95 1 5.138053771327421 12.025338904438827 2.0424171945989182 0 0 0
96 1 8.631907689641537 10.024795151303456 -3.380082906340149 0 0 0
97 1 7.636393334196782 11.5270824535086 -1.5725828655227099 0 0 0
98 1 6.638731392479187 13.032089053782586 0.2349171291678953 0 0 0
99 1 9.139722372368652 12.531145738048826 -3.3800829589307435 0 0 0
100 1 4.14530960246033 -12.535214642039644 0.23491720220624962 0 0 0
101 1 3.1141886035067188 -11.021854724284928 2.0424172243610363 0 0 0
102 1 5.625736556317818 -11.528159027090176 -1.572582836682373 0 0 0
103 1 4.6048218231075 -10.022519625056473 0.23491718410420867 0 0 0
104 1 3.6043324242956913 -8.525913669922955 2.0424172272314425 0 0 0
105 1 7.123271676238971 -10.526732695648654 -3.380082891022424 0 0 0
106 1 6.12135849440871 -9.02551013605263 -1.572582843999782 0 0 0
107 1 5.138052076925604 -7.5257553412470966 0.23491721351252023 0 0 0
108 1 4.1453087515531735 -6.0181825538502 2.042417241254343 0 0 0
109 1 7.63639126413257 -8.024011622942604 -3.380082917514876 0 0 0
110 1 6.638730394462073 -6.519005194804095 -1.5725828687308818 0 0 0
111 1 5.625736504186889 -5.011127010484538 0.23491719229767075 0 0 0
112 1 4.604822592595909 -3.505487843347714 2.042417214297014 0 0 0
113 1 8.133439591775996 -5.514426253991137 -3.380082928474984 0 0 0
114 1 7.123272680629412 -4.009700837343539 -1.5725828910685087 0 0 0
115 1 6.121360247427845 -2.5084785594430627 0.2349171795769056 0 0 0
116 1 5.138054284797249 -1.0087239772433456 2.042417221831069 0 0 0
117 1 8.63190681647282 -3.0092671991165805 -3.3800829018983065 0 0 0
118 1 7.636394027315859 -1.5069802463726631 -1.5725828703482236 0 0 0
119 1 6.638733320948518 -0.0019740315046217205 0.2349171835197218 0 0 0
120 1 5.625739359378571 1.5059040405681774 2.042417207465174 0 0 0
121 1 9.139724757260751 -0.5029172938724482 -3.380082920953051 0 0 0
122 1 8.133443042413745 1.002604673011609 -1.5725828932449875 0 0 0
123 1 7.123275728553381 2.5073300532160214 0.23491714127273539 0 0 0
124 1 6.121362672508795 4.008552362192729 2.042417203275885 0 0 0
125 1 9.63444128588057 2.0048188124811297 -3.3800829242153556 0 0 0
126 1 8.63190975422745 3.5077635410274564 -1.5725828963530413 0 0 0
127 1 7.636396031288243 5.01005060928672 0.23491713857977847 0 0 0
128 1 6.638734339598443 6.515056988226794 2.0424171706615257 0 0 0
129 1 10.140081417994196 4.509862955530243 -3.3800829421063274 0 0 0
130 1 9.139725987963772 6.014113599013777 -1.572582915067897 0 0 0
131 1 8.133443166160149 7.519635792455231 0.23491711205027893 0 0 0
132 1 7.123274845306611 9.02436139279891 2.0424171328872336 0 0 0
133 1 10.640092672865379 7.017538786864266 -3.3800829975938536 0 0 0
134 1 9.63444021320116 8.52185011719241 -1.572582952147593 0 0 0
135 1 8.631907700186446 10.024795137429686 0.23491708116289073 0 0 0
136 1 7.636393341976202 11.5270824407451 2.042417117322761 0 0 0
137 1 11.140031005903438 9.523603307640142 -3.3800829977875995 0 0 0
138 1 10.140078115245828 11.02689491702109 -1.5725829869924484 0 0 0
139 1 9.139722350880447 12.53114574079259 0.23491704723898493 0 0 0
140 1 11.643961283821724 12.030004457526461 -3.3800830391532894 0 0 0
141 1 5.625736573205529 -11.528159019026768 2.042417164867485 0 0 0
142 1 8.133439630437962 -12.03145840123973 -1.5725829269211076 0 0 0
143 1 7.123271680197519 -10.526732710351 0.2349171050773105 0 0 0
144 1 6.121358488120833 -9.025510155780488 2.0424171408301035 0 0 0
145 1 9.634436331067633 -11.029243810295572 -3.3800829745061116 0 0 0
146 1 8.631904623383775 -9.526298830005866 -1.5725829613301585 0 0 0
147 1 7.636391277380284 -8.024011609439675 0.23491709746023934 0 0 0
148 1 6.638730382108633 -6.519005181206281 2.042417149567726 0 0 0
149 1 10.1400755545111 -8.524198969555965 -3.380083013212568 0 0 0
150 1 9.139721128917657 -7.01994835902441 -1.5725829675377538 0 0 0
151 1 8.1334395780693 -5.514426251717911 0.23491707233643114 0 0 0
152 1 7.123272661954658 -4.009700833098712 2.042417125961364 0 0 0
153 1 10.640088294749816 -6.016522931857022 -3.3800830329520215 0 0 0
154 1 9.634437586530282 -4.512211907623168 -1.5725829597058043 0 0 0
155 1 8.631906797176214 -3.0092672088058148 0.23491706130461348 0 0 0
156 1 7.636394040600408 -1.5069802910551058 2.0424171261669706 0 0 0
157 1 11.140029934419914 -3.51045881135971 -3.380082986093982 0 0 0
158 1 10.140078948656438 -2.007167662241418 -1.5725829622749068 0 0 0
159 1 9.139724749061358 -0.5029173030337848 0.23491708513744614 0 0 0
160 1 8.13344306910652 1.0026046585409905 2.0424170828166885 0 0 0
161 1 11.643964227460444 -1.0040585192015268 -3.380082979737732 0 0 0
162 1 10.64009255227505 0.5005078239956795 -1.572582966361231 0 0 0
163 1 9.634441301359885 2.0048188021338955 0.23491707668419864 0 0 0
164 1 8.63190974630767 3.5077635539722163 2.042417100623279 0 0 0
165 1 12.142705878465932 1.5029857331961782 -3.3800829845376517 0 0 0
166 1 11.140033537680992 3.0065716634719717 -1.5725829714925759 0 0 0
167 1 10.140081411779192 4.509862948973817 0.2349170565747184 0 0 0
168 1 9.13972599136676 6.014113578416273 2.0424170837332 0 0 0
169 1 12.645580786261107 4.008940114897479 -3.3800830224369376 0 0 0
170 1 11.643965727633102 5.512972099129991 -1.5725830050170988 0 0 0
171 1 10.640092665290084 7.0175387858389175 0.2349170272871669 0 0 0
172 1 9.634440219101336 8.521850117713027 2.042417055178925 0 0 0
173 1 13.146510550070701 6.51590048418681 -3.3800830656201186 0 0 0
174 1 12.142704492586674 8.020016928518336 -1.5725830419822684 0 0 0
175 1 11.140031018846074 9.523603301870937 0.23491698081746343 0 0 0
176 1 10.140078090311135 11.026894891756536 2.0424170078051627 0 0 0
177 1 13.64717632576884 9.022281291810584 -3.380083088930773 0 0 0
178 1 12.64557673022533 10.525972134827677 -1.5725830487960277 0 0 0
179 1 11.64396127440422 12.030004454094763 0.2349169848184113 0 0 0
180 1 14.149528453915593 11.52874225632531 -3.380083092421671 0 0 0
181 1 13.146505157907427 13.032933227975748 -1.5725830805948118 0 0 0
182 1 8.133439641105369 -12.031458416050024 2.042417074709345 0 0 0
183 1 10.640088314075442 -12.533555204569852 -1.5725830208988472 0 0 0
184 1 9.634436345293096 -11.029243828555138 0.2349170296796588 0 0 0
185 1 8.631904601362393 -9.52629882772803 2.0424170398745183 0 0 0
186 1 12.142699722682963 -11.531076693398616 -3.3800830609462986 0 0 0
187 1 11.14002720078875 -10.027490399283106 -1.572583016344023 0 0 0
188 1 10.140075539010084 -8.524198981473747 0.2349169980792488 0 0 0
189 1 9.139721106850558 -7.019948345860656 2.042417037469567 0 0 0
190 1 12.645573550073223 -9.025121444935799 -3.38008308183473 0 0 0
191 1 11.643959736026659 -7.521089417984764 -1.5725830360356767 0 0 0
192 1 10.640088280195869 -6.0165229257552015 0.23491698939058803 0 0 0
193 1 9.634437563378299 -4.512211877619025 2.0424170368612273 0 0 0
194 1 13.146505114423292 -6.518160781029756 -3.380083102109657 0 0 0
195 1 12.142701271475389 -5.014044684174868 -1.5725830482072862 0 0 0
196 1 11.140029914028375 -3.5104588061660245 0.23491697804344594 0 0 0
197 1 10.140078972096163 -2.0071677065857703 2.0424170386053313 0 0 0
198 1 13.647174977857148 -4.011780420318482 -3.3800830613765624 0 0 0
199 1 12.645577746074466 -2.50809020466445 -1.5725830230162121 0 0 0
200 1 11.643964217690268 -1.0040585252537486 0.23491700648578365 0 0 0
201 1 10.640092560806579 0.500507820305172 2.042417035994885 0 0 0
202 1 14.149532064366198 -1.5053204948508352 -3.3800830706814344 0 0 0
203 1 13.146510458564848 -0.0011302558089756332 -1.57258303633587 0 0 0
204 1 12.142705878343179 1.5029857351666251 0.23491698369236955 0 0 0
205 1 11.140033548853111 3.006571665978635 2.0424170375414827 0 0 0
206 1 14.649843222360133 1.0014277152524684 -3.3800830723609865 0 0 0
207 1 13.647179509115801 2.5052497321374254 -1.5725830453580811 0 0 0
208 1 12.645580784555236 4.008940113183035 0.23491697853641957 0 0 0
209 1 11.643965748737784 5.512972085636749 2.0424169967715478 0 0 0
210 1 15.151704549133257 3.5077383582619834 -3.3800830972406803 0 0 0
211 1 14.149533956829018 5.011709817842744 -1.5725830669382201 0 0 0
212 1 13.146510540958275 6.515900481928794 0.2349169309729056 0 0 0
213 1 12.142704509709716 8.02001694350741 2.042416952610271 0 0 0
214 1 15.652905754215766 6.014432063798305 -3.380083119260407 0 0 0
215 1 14.649841471781627 7.518458742551564 -1.5725830960077747 0 0 0
216 1 13.647176339858007 9.02228128573138 0.23491691795920394 0 0 0
217 1 12.645576706676934 10.525972153180087 2.0424169408487933 0 0 0
218 1 16.153914468256545 8.520920092054775 -3.380083139077674 0 0 0
219 1 15.151699530255087 10.02477036495288 -1.5725831267571282 0 0 0
220 1 14.14952846283613 11.528742244855698 0.2349168851116156 0 0 0
221 1 13.146505168099196 13.032933229988858 2.0424169095237796 0 0 0
222 1 16.65562764771856 11.027419545642951 -3.3800831396265325 0 0 0
223 1 15.652899092328099 12.531465009601598 -1.5725831443996994 0 0 0
224 1 10.640088329268139 -12.533555195584588 2.042416985157656 0 0 0
225 1 12.142699714985895 -11.531076702562187 0.2349169345068999 0 0 0
226 1 11.140027207991352 -10.027490392318537 2.0424169703861073 0 0 0
227 1 14.649835557256282 -12.032634685251914 -3.3800831086625562 0 0 0
228 1 13.647171649119613 -10.52881211894767 -1.5725831005293671 0 0 0
229 1 12.645573550100295 -9.025121436811808 0.23491690665130865 0 0 0
230 1 11.643959758118427 -7.5210894298440625 2.0424169502796032 0 0 0
231 1 15.151695534030338 -9.526322938926107 -3.3800831425463143 0 0 0
232 1 14.14952648784599 -8.02235133975043 -1.5725831192141382 0 0 0
233 1 13.146505118376865 -6.5181607767809995 0.23491691014681712 0 0 0
234 1 12.142701276926317 -5.014044672039489 2.042416947200761 0 0 0
235 1 15.652898916070114 -7.019628782191252 -3.3800831359529813 0 0 0
236 1 14.64983742005542 -5.515602469878444 -1.5725831054981443 0 0 0
237 1 13.647174982718298 -4.011780424175514 0.23491690334895338 0 0 0
238 1 12.645577752353901 -2.5080902278454094 2.0424169585892957 0 0 0
239 1 16.153912677361063 -4.513141227541821 -3.3800831106654017 0 0 0
240 1 15.151700718450456 -3.009291663110913 -1.5725831096829754 0 0 0
241 1 14.149532070829395 -1.505320502835362 0.23491692968242048 0 0 0
242 1 13.146510419545379 -0.0011302719894228375 2.042416951261179 0 0 0
243 1 16.65563204145377 -2.006643044132632 -3.380083122043438 0 0 0
244 1 15.652905629574164 -0.5025984137943933 -1.572583116008835 0 0 0
245 1 14.649843217949169 1.0014277228385495 0.23491692738294687 0 0 0
246 1 13.64717949510856 2.5052497001207534 2.0424169455023757 0 0 0
247 1 17.156549620902965 0.4999809087684568 -3.3800831347314984 0 0 0
248 1 16.15391840853836 2.0038886513050365 -1.572583111901433 0 0 0
249 1 15.15170456244934 3.507738363294452 0.23491689995322346 0 0 0
250 1 14.14953397003984 5.011709813000914 2.0424169284737115 0 0 0
251 1 17.658043218133628 3.006430518310994 -3.380083114620658 0 0 0
252 1 16.65563448096988 4.51038696426353 -1.5725831301710815 0 0 0
253 1 15.65290576433506 6.014432073444775 0.23491687799466604 0 0 0
254 1 14.649841460627087 7.518458735944629 2.0424169012932523 0 0 0
255 1 18.159317483758386 5.513025393573139 -3.3800831455978577 0 0 0
256 1 17.156547479924242 7.017011726020781 -1.5725831358427034 0 0 0
257 1 16.153914469840302 8.520920111742884 0.23491687665896532 0 0 0
258 1 15.151699507653348 10.024770373689977 2.0424168799833153 0 0 0
259 1 18.660481993795315 8.019548643127967 -3.380083155356246 0 0 0
260 1 17.658036938605036 9.523462571321682 -1.572583153627556 0 0 0
261 1 16.655627641424175 11.027419547948623 0.2349168392991204 0 0 0
262 1 15.652899083670547 12.531464989732 2.0424168443297237 0 0 0
263 1 19.16193747583725 10.52606886624127 -3.380083156298689 0 0 0
264 1 18.159309126840853 12.030058639058021 -1.5725831730483588 0 0 0
265 1 19.66308155120373 13.032643360587366 -3.3800831569754077 0 0 0
266 1 14.649835553083335 -12.032634694100965 0.23491687192221444 0 0 0
267 1 13.647171630614892 -10.528812122299387 2.0424168796225857 0 0 0
268 1 17.156540119185465 -12.534081348972558 -3.380083172769053 0 0 0
269 1 16.153908629464084 -11.030172998520639 -1.572583143618644 0 0 0
270 1 15.15169554284192 -9.526322934455198 0.23491686069323256 0 0 0
271 1 14.1495265039879 -8.022351357296925 2.04241688440654 0 0 0
272 1 17.658031929245084 -10.027630350722232 -3.380083162079252 0 0 0
273 1 16.655625103082002 -8.523673768605551 -1.5725831601546274 0 0 0
274 1 15.652898925835402 -7.019628788263516 0.23491686097386785 0 0 0
275 1 14.649837440618555 -5.515602459043297 2.0424168944783356 0 0 0
276 1 18.15930879065374 -7.521034879680008 -3.3800831602486516 0 0 0
277 1 17.15654229475146 -6.017048984966239 -1.5725831587742092 0 0 0
278 1 16.15391268905789 -4.513141222366082 0.2349168604705331 0 0 0
279 1 15.151700731042638 -3.009291664440946 2.0424168860255825 0 0 0
280 1 18.660479609232084 -5.014512156142429 -3.3800831497534887 0 0 0
281 1 17.658038313453204 -3.510599130408762 -1.5725831361595433 0 0 0
282 1 16.655632044348934 -2.0066430434704596 0.23491686102565026 0 0 0
283 1 15.652905614599973 -0.5025984002662902 2.042416877254522 0 0 0
284 1 19.16194285075889 -2.5079934965543806 -3.380083160992728 0 0 0
285 1 18.15931719806906 -1.0040047960092302 -1.5725831357279036 0 0 0
286 1 17.156549616774058 0.4999809179541579 0.23491686649445398 0 0 0
287 1 16.153918415107626 2.00388867219597 2.0424168978996895 0 0 0
288 1 19.663093335733322 -0.001421115653172933 -3.3800831379935405 0 0 0
289 1 18.6604868576306 1.5025172639249593 -1.5725831426852317 0 0 0
290 1 17.65804321607193 3.0064305207644946 0.23491686801622413 0 0 0
291 1 16.655634507206173 4.510386972864859 2.0424168751208653 0 0 0
292 1 20.164455141265563 2.505082335547886 -3.3800831538903244 0 0 0
293 1 19.16194606422917 4.009036068447569 -1.5725831433044304 0 0 0
294 1 18.159317492093138 5.5130253986456506 0.23491686771794165 0 0 0
295 1 17.156547481195915 7.017011736842123 2.0424168569927423 0 0 0
296 1 20.66574527035253 5.0116407794065605 -3.380083162477843 0 0 0
297 1 19.66309076592968 6.515609469037242 -1.5725831458192854 0 0 0
298 1 18.660481988274142 8.019548654914823 0.2349168500002686 0 0 0
299 1 17.658036925530652 9.523462560997823 2.0424168523036452 0 0 0
300 1 21.166978330976136 7.518175105332174 -3.3800831518049135 0 0 0
301 1 20.164447327009896 9.022114438387144 -1.5725831657424438 0 0 0
302 1 19.16193746740646 10.526068863625762 0.23491682921731674 0 0 0
303 1 18.159309129700105 12.03005861654905 2.0424168282669224 0 0 0
304 1 21.66833007746628 10.024705687129051 -3.3800831766458685 0 0 0
305 1 20.665734776595613 11.528674368349078 -1.5725831845515288 0 0 0
306 1 19.663081553497747 13.032643337427084 0.23491681175553525 0 0 0
307 1 22.169561678130663 12.531259445929239 -3.380083172282836 0 0 0
308 1 17.156540127218832 -12.53408134309541 0.23491683267582758 0 0 0
309 1 16.15390861852626 -11.030172997129593 2.0424168362723516 0 0 0
310 1 18.660474704104388 -11.531543998912346 -1.572583179850097 0 0 0
311 1 17.658031946360197 -10.027630341718398 0.23491683397979227 0 0 0
312 1 16.65562512447748 -8.523673756210002 2.042416839661966 0 0 0
313 1 20.1644410229177 -10.528977899335366 -3.3800831870413255 0 0 0
314 1 19.16193424948014 -9.025023995720083 -1.572583177446749 0 0 0
315 1 18.159308803746825 -7.521034884320776 0.23491682721794932 0 0 0
316 1 17.1565423218984 -6.017048973584199 2.0424168481926457 0 0 0
317 1 20.665734228600144 -8.022418675793237 -3.3800831905318733 0 0 0
318 1 19.663084118137817 -6.518450538682613 -1.5725831702672046 0 0 0
319 1 18.660479605280912 -5.014512165900667 0.23491683573868466 0 0 0
320 1 17.658038322344737 -3.510599151737919 2.0424168702204923 0 0 0
321 1 21.1669750832435 -5.515884982751578 -3.3800831895697914 0 0 0
322 1 20.16444884999956 -4.011946781778228 -1.5725831620592046 0 0 0
323 1 19.16194284486336 -2.507993508826358 0.23491685866884685 0 0 0
324 1 18.159317164383523 -1.0040048056265558 2.0424168580113746 0 0 0
325 1 21.668336584519082 -3.009356343875849 -3.3800831689087367 0 0 0
326 1 20.665744734518498 -1.505389007694081 -1.5725831513167652 0 0 0
327 1 19.663093335412412 -0.001421111484154025 0.23491685857632705 0 0 0
328 1 18.660486847897033 1.5025172622544432 2.042416865944626 0 0 0
329 1 22.169576326902146 -0.5028052290774419 -3.380083155980206 0 0 0
330 1 21.16698428034009 1.0011438720081927 -1.5725831658155436 0 0 0
331 1 20.164455135735636 2.505082327973982 0.23491685351100572 0 0 0
332 1 19.161946053226075 4.009036057066849 2.042416863405442 0 0 0
333 1 22.67089171585677 2.003718860903719 -3.3800831618564184 0 0 0
334 1 21.668340786118932 3.507672713801794 -1.5725831812645186 0 0 0
335 1 20.665745258148362 5.011640774578135 0.23491685415683908 0 0 0
336 1 19.663090799143035 6.515609473706215 2.042416852030451 0 0 0
337 1 23.172183064379198 4.510263957143936 -3.3800831932744635 0 0 0
338 1 22.169573342823995 6.0142250461583675 -1.572583162552314 0 0 0
339 1 21.166978327623156 7.518175102121669 0.2349168288673249 0 0 0
340 1 20.16444733940702 9.02211444637915 2.0424168429948364 0 0 0
341 1 23.673445319302346 7.016801561664979 -3.3800831853284983 0 0 0
342 1 22.67088206847751 8.520751003789124 -1.572583164164504 0 0 0
343 1 21.668330057532714 10.024705689452306 0.2349168092009888 0 0 0
344 1 20.6657347568528 11.528674368014299 2.042416834977128 0 0 0
345 1 24.174754919704966 9.523337146006122 -3.380083191862706 0 0 0
346 1 23.17216987542855 11.02729797629018 -1.5725831839238744 0 0 0
347 1 22.169561674184294 12.531259443276651 0.2349168122217632 0 0 0
348 1 24.676018883675113 12.029882666399283 -3.3800832185740486 0 0 0
349 1 18.660474695563593 -11.53154402043619 2.042416821432386 0 0 0
350 1 21.166969117783623 -12.032916949852018 -1.5725831902431866 0 0 0
351 1 20.16444103686449 -10.528977911658549 0.23491681529232772 0 0 0
352 1 19.16193423984768 -9.025024009241763 2.0424168300728964 0 0 0
353 1 22.67087401804521 -11.030340670977806 -3.3800831937243987 0 0 0
354 1 21.668325886460636 -9.526386553854348 -1.5725831902566232 0 0 0
355 1 20.665734238912776 -8.022418661988326 0.23491682012225099 0 0 0
356 1 19.66308411336324 -6.518450545022112 2.042416838601397 0 0 0
357 1 23.172168991725357 -8.523794545948185 -3.380083198851421 0 0 0
358 1 22.169564699775464 -7.019834091746761 -1.5725831882137353 0 0 0
359 1 21.16697507840196 -5.515884989105689 0.2349168422763817 0 0 0
360 1 20.16444885697976 -4.0119467765591725 2.0424168357638925 0 0 0
361 1 23.673440859399847 -6.01725765324746 -3.38008319732821 0 0 0
362 1 22.67088365773931 -4.513309593789872 -1.5725831777718922 0 0 0
363 1 21.66833657836628 -3.0093563433818193 0.2349168244016292 0 0 0
364 1 20.665744698184213 -1.5053889737742594 2.042416844909187 0 0 0
365 1 24.17476274471072 -3.510724477116799 -3.38008318072674 0 0 0
366 1 23.172182137678078 -2.0067652997856538 -1.5725831740600436 0 0 0
367 1 22.169576325407576 -0.5028052210634293 0.23491682582253157 0 0 0
368 1 21.16698427680332 1.0011438583837844 2.0424168389482804 0 0 0
369 1 24.676037075176836 -1.00418220220147 -3.3800832092292006 0 0 0
370 1 23.673452558263563 0.49977049175984334 -1.5725831736106486 0 0 0
371 1 22.67089170912574 2.0037188648117183 0.2349168177346547 0 0 0
372 1 21.668340777996534 3.5076726935798863 2.042416825325992 0 0 0
373 1 25.177336631709252 1.5023495847319275 -3.380083212126468 0 0 0
374 1 24.17476825195557 3.006303859265989 -1.5725831838917816 0 0 0
375 1 23.172183052825247 4.5102639529487245 0.23491681939253242 0 0 0
376 1 22.16957334813 6.014225061513612 2.0424168338219704 0 0 0
377 1 25.67862635385788 4.0088897310827765 -3.3800832238977088 0 0 0
378 1 24.676033614072026 5.512847625344962 -1.5725831998350712 0 0 0
379 1 23.67344531887231 7.016801559669423 0.23491682166865976 0 0 0
380 1 22.670882080278943 8.520751012222268 2.042416823540051 0 0 0
381 1 26.17990033951463 6.515428226403278 -3.3800832144657917 0 0 0
382 1 25.17732468338056 8.01938175995661 -1.572583216961321 0 0 0
383 1 24.174754909600196 9.523337139138322 0.23491680175083407 0 0 0
384 1 23.172169856976595 11.027297965778194 2.0424168227271084 0 0 0
385 1 26.68119218415113 9.021966190107532 -3.380083240029805 0 0 0
386 1 25.678609827302154 10.525924246139782 -1.572583232311689 0 0 0
387 1 24.67601886019584 12.029882658255014 0.23491681078224882 0 0 0
388 1 27.182467324874892 11.528508635205826 -3.3800832614313094 0 0 0
389 1 26.179885446140233 13.032464109849544 -1.5725832184795139 0 0 0
390 1 21.166969096247314 -12.032916958384074 2.0424168099830062 0 0 0
391 1 23.673433596562447 -12.534289832110668 -1.5725831861371695 0 0 0
392 1 22.67087402355409 -11.030340673656012 0.23491682360659083 0 0 0
393 1 21.6683258924285 -9.526386570857834 2.042416801647762 0 0 0
394 1 25.177314391350407 -11.531709152083309 -3.380083198210939 0 0 0
395 1 24.17474941420444 -10.027754447154685 -1.5725831977040035 0 0 0
396 1 23.17216900759233 -8.523794534142393 0.2349168189657792 0 0 0
397 1 22.16956469304793 -7.019834081187489 2.042416828846163 0 0 0
398 1 25.678608392291807 -9.025167624378454 -3.380083215015794 0 0 0
399 1 24.67602239274082 -7.521210418234621 -1.5725832041303045 0 0 0
400 1 23.673440853120994 -6.017257648983202 0.23491681646425455 0 0 0
401 1 22.670883696744596 -4.513309589580713 2.0424168285530273 0 0 0
402 1 26.17989424066758 -6.518629932017067 -3.38008322237255 0 0 0
403 1 25.17732630643519 -5.014678059927197 -1.5725832046770833 0 0 0
404 1 24.17476273430688 -3.510724475433662 0.23491679149956382 0 0 0
405 1 23.172182103056173 -2.0067653232457836 2.0424168181024984 0 0 0
406 1 26.681201562899005 -4.012094880865908 -3.3800832528139515 0 0 0
407 1 25.678624852325044 -2.50813886462484 -1.5725832116636467 0 0 0
408 1 24.67603707125376 -1.0041822050264546 0.23491682056283297 0 0 0
409 1 23.67345254404559 0.49977048426793935 2.0424168168486894 0 0 0
410 1 27.18248987196303 -1.5055564622289186 -3.380083240226668 0 0 0
411 1 26.179909137672283 -0.001602600884259786 -1.5725832204271073 0 0 0
412 1 25.17733663084286 1.5023495709792254 0.23491680230561895 0 0 0
413 1 24.17476824606466 3.0063038527613575 2.042416813685106 0 0 0
414 1 27.683784542004005 1.000977981848905 -3.380083266400344 0 0 0
415 1 26.681208813728233 2.5049326234771367 -1.5725832300927662 0 0 0
416 1 25.67862635055849 4.008889716207699 0.23491678565233937 0 0 0
417 1 24.67603359907764 5.512847648820296 2.042416794387362 0 0 0
418 1 28.185072629764562 3.507516108276862 -3.380083274881728 0 0 0
419 1 27.182485911941527 5.011472862247524 -1.5725832570832 0 0 0
420 1 26.17990031976366 6.515428230176452 0.2349167510284234 0 0 0
421 1 25.177324720297236 8.019381775498234 2.0424167834912352 0 0 0
422 1 28.686350629740247 6.014054815871974 -3.380083294954222 0 0 0
423 1 27.683769796895604 7.518010226567148 -1.5725832783146831 0 0 0
424 1 26.681192189090496 9.021966203185878 0.23491673703703578 0 0 0
425 1 25.678609816189663 10.525924243411412 2.042416771976215 0 0 0
426 1 29.187634141553957 8.520594028278653 -3.3800833108195656 0 0 0
427 1 28.185051961251588 10.024551304448115 -1.5725832890107552 0 0 0
428 1 27.18246731035626 11.528508639702482 0.23491674682583147 0 0 0
429 1 26.1798854168252 13.03246412726307 2.042416762589993 0 0 0
430 1 29.68891220658523 11.027135548327324 -3.3800833217612407 0 0 0
431 1 28.686331744281148 12.531091745366185 -1.5725832985610737 0 0 0
432 1 23.673433582680573 -12.534289828283173 2.042416820122631 0 0 0
433 1 25.177314381176572 -11.531709144364264 0.23491678236937472 0 0 0
434 1 24.17474945700789 -10.027754454019147 2.042416802684049 0 0 0