#LAMMPS data file
3190 atoms
2 atom types
-125.2250000000 125.2250000000 xlo xhi
-13.0340632500 13.0340632500 ylo yhi
-3.6150000000 3.6150000000 zlo zhi
0.0 0.0 0.0 xy xz yz

Atoms # atomic

1 1 -28.3741301868 5.8778266985 -1.5765835383
2 1 -27.1199459483 6.9704766207 0.2309159627
3 1 -28.0751098357 4.3203875040 0.2309163388
4 1 -28.3741301066 5.8778267061 2.0384164463
5 1 -27.1199459252 6.9704766136 -3.3840840676
6 1 -26.9102274769 3.0007486085 -1.5765840187
7 1 -26.0994707681 5.4428727353 -1.5765846443
8 1 -28.0751098365 4.3203874892 -3.3840836550
9 1 -28.2964565546 1.8160173247 0.2309165491
10 1 -26.9102274696 3.0007486161 2.0384159820
11 1 -26.0994708157 5.4428727443 2.0384153608
12 1 -27.1557549957 0.4639913792 -1.5765842419
13 1 -25.3519648002 3.9653470318 0.2309153108
14 1 -28.2964565473 1.8160173349 -3.3840834621
15 1 -28.2995904941 -1.9572607742 -1.5765834098
16 1 -25.7919123586 1.4846487865 0.2309154274
17 1 -27.1557550042 0.4639913769 2.0384157636
18 1 -25.3519647983 3.9653470158 -3.3840846760
19 1 -25.5637430339 -2.4752663406 -1.5765844916
20 1 -28.2995905161 -1.9572607527 2.0384165922
21 1 -25.7919123610 1.4846487957 -3.3840845487
22 1 -28.2602028130 -4.5777398711 -1.5765833032
23 1 -26.5824182272 -1.0475765152 0.2309157287
24 1 -25.5637430351 -2.4752663388 2.0384155097
25 1 -25.9470994166 -4.9976338352 -1.5765847347
26 1 -28.2602028094 -4.5777398764 2.0384166860
27 1 -26.5824182298 -1.0475765051 -3.3840842656
28 1 -27.0088746632 -3.4967002689 0.2309160839
29 1 -25.9470994158 -4.9976338284 2.0384152668
30 1 -27.0088746721 -3.4967002685 -3.3840839145
31 1 3.0536489137 -4.5075313374 -3.3840857065
32 1 2.0572039975 -3.0048521783 -1.5765853967
33 1 1.0844828095 -1.5218974981 0.2309149096
34 1 0.2511854930 -0.0411916885 2.0384150472
35 1 3.6128417352 -2.0202837228 -3.3840858508
36 1 2.6897659659 -0.5297511651 -1.5765856117
37 1 1.7325149266 0.9788465662 0.2309146827
38 1 0.7153295143 2.4933504565 2.0384150397
39 1 4.2065796338 0.4791707540 -3.3840860141
40 1 3.2213715732 1.9853967914 -1.5765857084
41 1 2.2423926175 3.4815629772 0.2309145831
42 1 1.3427202398 4.9750200055 2.0384147425
43 1 4.7362562268 2.9864616554 -3.3840861518
44 1 3.7793559497 4.4887202116 -1.5765858947
45 1 2.7913097525 6.0072943857 0.2309143909
46 1 1.7287791160 7.5365345507 2.0384147406
47 1 5.2503663314 5.5081863063 -3.3840862959
48 1 4.2164092788 7.0287162993 -1.5765859573
49 1 3.1475701321 8.5490199132 0.2309143864
50 1 2.0772027262 10.0596853821 2.0384147327
51 1 5.6640080163 8.0390256636 -3.3840863244
52 1 4.6187913605 9.5499305542 -1.5765860223
53 1 3.5996559583 11.0501041402 0.2309142480
54 1 2.6367487483 12.5468592685 2.0384144479
55 1 6.1185353234 10.5486361117 -3.3840864449
56 1 5.1174401869 12.0527486316 -1.5765861949
57 1 6.5981580568 -13.0062740963 -3.3840865931
58 1 1.6289016101 -11.9987905050 0.2309147282
59 1 0.5198227827 -10.4546477138 2.0384151510
60 1 4.1031027399 -12.5021023535 -3.3840859202
61 1 3.0383394112 -10.9802480933 -1.5765855985
62 1 1.9312510888 -9.4586771539 0.2309147775
63 1 0.8308687894 -7.9494492546 2.0384151109
64 1 4.4918529051 -9.9791961062 -3.3840859822
65 1 3.4328925943 -8.4748652441 -1.5765856750
66 1 2.4247436623 -6.9905225709 0.2309145551
67 1 1.5266273990 -5.5112755753 2.0384146753
68 1 4.9840789775 -7.4935593964 -3.3840861424
69 1 4.0198841157 -6.0051047633 -1.5765859383
70 1 3.0536489167 -4.5075313373 0.2309143055
71 1 2.0572039965 -3.0048521740 2.0384146055
72 1 5.5623351134 -5.0082432127 -3.3840863708
73 1 4.5818840501 -3.5115523140 -1.5765861127
74 1 3.6128417310 -2.0202837199 0.2309141677
75 1 2.6897659529 -0.5297511724 2.0384143840
76 1 6.1242128682 -2.5171933379 -3.3840865455
77 1 5.1682792095 -1.0226391770 -1.5765862874
78 1 4.2065796416 0.4791707536 0.2309139715
79 1 3.2213715740 1.9853967710 2.0384142882
80 1 6.6915876775 -0.0178224406 -3.3840867117
81 1 5.7137252519 1.4849340996 -1.5765864405
82 1 4.7362562346 2.9864616530 0.2309138583
83 1 3.7793559223 4.4887202269 2.0384141097
84 1 7.2231561704 2.4902540813 -3.3840868408
85 1 6.2446770672 3.9952193032 -1.5765865744
86 1 5.2503663249 5.5081863047 0.2309137236
87 1 4.2164092798 7.0287163130 2.0384140388
88 1 7.7256302884 5.0087652031 -3.3840869755
89 1 6.7055791995 6.5233879400 -1.5765866495
90 1 5.6640080215 8.0390256635 0.2309136731
91 1 4.6187913572 9.5499305443 2.0384139784
92 1 8.1709304787 7.5325224288 -3.3840870371
93 1 7.1395602129 9.0428093631 -1.5765867299
94 1 6.1185353198 10.5486361159 0.2309135525
95 1 5.1174401693 12.0527486246 2.0384138053
96 1 8.6305225053 10.0452024815 -3.3840871574
97 1 7.6168801870 11.5518761228 -1.5765868779
98 1 6.5981580529 -13.0062741020 0.2309133924
99 1 9.1033781261 12.5572509310 -3.3840872792
100 1 4.1031027408 -12.5021023581 0.2309140745
101 1 3.0383394206 -10.9802480979 2.0384143982
102 1 5.5562475689 -11.4922577405 -1.5765863044
103 1 4.4918529065 -9.9791961156 0.2309140069
104 1 3.4328925867 -8.4748652438 2.0384143203
105 1 7.0322187169 -10.4916064362 -3.3840866920
106 1 5.9945213931 -8.9877449672 -1.5765864026
107 1 4.9840789785 -7.4935593979 0.2309138496
108 1 4.0198841251 -6.0051047731 2.0384140574
109 1 7.5250727420 -7.9979288657 -3.3840868620
110 1 6.5383999047 -6.5036659230 -1.5765866091
111 1 5.5623351156 -5.0082432108 0.2309136268
112 1 4.5818840604 -3.5115523275 2.0384138869
113 1 8.0764940061 -5.5083633520 -3.3840870270
114 1 7.0966694347 -4.0119473974 -1.5765868014
115 1 6.1242128674 -2.5171933445 0.2309134661
116 1 5.1682792230 -1.0226391632 2.0384137072
117 1 8.6309864704 -3.0146651360 -3.3840872274
118 1 7.6611296946 -1.5176951740 -1.5765869713
119 1 6.6915876859 -0.0178224448 0.2309132765
120 1 5.7137252814 1.4849340949 2.0384135560
121 1 9.1830783950 -0.5144751633 -3.3840873877
122 1 8.2040021723 0.9873847079 -1.5765871190
123 1 7.2231561690 2.4902540850 0.2309131476
124 1 6.2446770556 3.9952192963 2.0384134211
125 1 9.7111593567 1.9934342714 -3.3840875303
126 1 8.7236662454 3.4988888406 -1.5765872457
127 1 7.7256302859 5.0087652073 0.2309130509
128 1 6.7055792086 6.5233879545 2.0384133487
129 1 10.2105665981 4.5092407931 -3.3840876431
130 1 9.1975872501 6.0202949135 -1.5765873532
131 1 8.1709304711 7.5325224337 0.2309129546
132 1 7.1395602163 9.0428093670 2.0384132747
133 1 10.6739824864 7.0283697661 -3.3840877192
134 1 9.6508922582 8.5377254264 -1.5765874340
135 1 8.6305225165 10.0452024805 0.2309128607
136 1 7.6168801778 11.5518761541 2.0384131275
137 1 11.1396992395 9.5416177331 -3.3840878343
138 1 10.1228889181 11.0488669362 -1.5765875688
139 1 9.1033781192 12.5572509290 0.2309127124
140 1 11.6127557127 12.0528140719 -3.3840879596
141 1 5.5562475532 -11.4922577551 2.0384136893
142 1 8.0732649047 -12.0008422691 -1.5765869929
143 1 7.0322187159 -10.4916064358 0.2309133089
144 1 5.9945213670 -8.9877449833 2.0384135882
145 1 9.5613453901 -11.0003334148 -3.3840873972
146 1 8.5356517598 -9.4964391275 -1.5765871092
147 1 7.5250727409 -7.9979288611 0.2309131519
148 1 6.5383998972 -6.5036659326 2.0384133866
149 1 10.0560036533 -8.5024216517 -3.3840875276
150 1 9.0607318010 -7.0048995954 -1.5765872786
151 1 8.0764940061 -5.5083633583 0.2309129648
152 1 7.0966694370 -4.0119474047 2.0384131918
153 1 10.5917781302 -6.0089692330 -3.3840877171
154 1 9.6083925377 -4.5115038835 -1.5765874726
155 1 8.6309864731 -3.0146651352 0.2309127856
156 1 7.6611296894 -1.5176951630 2.0384130277
157 1 11.1368464985 -3.5129664350 -3.3840878993
158 1 10.1592416447 -2.0144327341 -1.5765876450
159 1 9.1830783996 -0.5144751607 0.2309126111
160 1 8.2040021562 0.9873846961 2.0384128779
161 1 11.6784126406 -1.0117883447 -3.3840880588
162 1 10.6958969577 0.4901076834 -1.5765878004
163 1 9.7111593496 1.9934342745 0.2309124848
164 1 8.7236662372 3.4988888288 2.0384127582
165 1 12.2020754583 1.4958084298 -3.3840882153
166 1 11.2102174293 3.0011424196 -1.5765879173
167 1 10.2105665986 4.5092407973 0.2309123382
168 1 9.1975872613 6.0202949150 2.0384126490
169 1 12.7013188322 4.0094726246 -3.3840883269
170 1 11.6922493138 5.5183990930 -1.5765880487
171 1 10.6739824897 7.0283697696 0.2309122436
172 1 9.6508922690 8.5377254169 2.0384125687
173 1 13.1757849361 6.5254966728 -3.3840884298
174 1 12.1580480592 8.0339378070 -1.5765881284
175 1 11.1396992410 9.5416177357 0.2309121599
176 1 10.1228889061 11.0488669436 2.0384124396
177 1 13.6475193100 9.0382963343 -3.3840885456
178 1 12.6310620958 10.5454138234 -1.5765882441
179 1 11.6127557041 12.0528140716 0.2309120402
180 1 14.1234181265 11.5487634140 -3.3840886468
181 1 13.1047037677 -13.0127226487 -1.5765883652
182 1 8.0732649007 -12.0008422685 2.0384129995
183 1 10.5895011152 -12.5074471027 -1.5765876745
184 1 9.5613453935 -11.0003334126 0.2309126015
185 1 8.5356517563 -9.4964391495 2.0384128862
186 1 12.0840499916 -11.5068195473 -3.3840880687
187 1 11.0655063000 -10.0029837709 -1.5765877895
188 1 10.0560036533 -8.5024216438 0.2309124730
189 1 9.0607317873 -7.0048995866 2.0384127185
190 1 12.5804774312 -9.0064710698 -3.3840882164
191 1 11.5815721257 -7.5070423426 -1.5765879541
192 1 10.5917781368 -6.0089692290 0.2309122790
193 1 9.6083925454 -4.5115038771 2.0384125276
194 1 13.1064427805 -6.5099604215 -3.3840883748
195 1 12.1190649715 -5.0112861773 -1.5765881402
196 1 11.1368464883 -3.5129664405 0.2309120893
197 1 10.1592416567 -2.0144327284 2.0384123432
198 1 13.6427813211 -4.0119592422 -3.3840885607
199 1 12.6598384322 -2.5123110070 -1.5765883180
200 1 11.6784126485 -1.0117883490 0.2309119542
201 1 10.6958969500 0.4901076835 2.0384121960
202 1 14.1763228367 -1.5098667171 -3.3840887320
203 1 13.1902290667 -0.0077016462 -1.5765884796
204 1 12.2020754552 1.4958084396 0.2309118097
205 1 11.2102174355 3.0011424470 2.0384120813
206 1 14.6959534368 0.9974343308 -3.3840888809
207 1 13.7015955853 2.5025006728 -1.5765886207
208 1 12.7013188321 4.0094726321 0.2309116651
209 1 11.6922492905 5.5183991029 2.0384119562
210 1 15.1958220524 3.5094442738 -3.3840890288
211 1 14.1890801463 5.0170272856 -1.5765887416
212 1 13.1757849382 6.5254966573 0.2309115654
213 1 12.1580480478 8.0339377946 2.0384118686
214 1 15.6774911957 6.0232879349 -3.3840891393
215 1 14.6634445969 7.5309218870 -1.5765888302
216 1 13.6475193115 9.0382963285 0.2309114567
217 1 12.6310620906 10.5454138175 2.0384117568
218 1 16.1546103052 8.5352976878 -3.3840892399
219 1 15.1397392563 10.0420540609 -1.5765889372
220 1 14.1234181181 11.5487634168 0.2309113571
221 1 13.1047037534 -13.0127226442 2.0384116371
222 1 16.6341121862 11.0451309017 -3.3840893632
223 1 15.6187022190 12.5510407554 -1.5765890541
224 1 10.5895011115 -12.5074471008 2.0384123324
225 1 12.0840499893 -11.5068195491 0.2309119231
226 1 11.0655063137 -10.0029837802 2.0384122053
227 1 14.6027350033 -12.0118688517 -3.3840887501
228 1 13.5886565155 -10.5080944309 -1.5765884737
229 1 12.5804774368 -9.0064710623 0.2309117914
230 1 11.5815721150 -7.5070423452 2.0384120477
231 1 15.1005049555 -9.5099791688 -3.3840888930
232 1 14.0999273475 -8.0093474858 -1.5765886347
233 1 13.1064427888 -6.5099604205 0.2309116139
234 1 12.1190649848 -5.0112861783 2.0384118551
235 1 15.6199602509 -7.0111572965 -3.3840890623
236 1 14.6291663907 -5.5114163715 -1.5765888309
237 1 13.6427813168 -4.0119592421 0.2309114250
238 1 12.6598384323 -2.5123110268 2.0384116849
239 1 16.1489794654 -4.5114801696 -3.3840892720
240 1 15.1619598210 -3.0109810377 -1.5765890096
241 1 14.1763228336 -1.5098667151 0.2309112372
242 1 13.1902290781 -0.0077016845 2.0384115175
243 1 16.6761376312 -2.0086025371 -3.3840894317
244 1 15.6869067386 -0.5061516775 -1.5765891661
245 1 14.6959534454 0.9974343357 0.2309111065
246 1 13.7015955828 2.5025006604 2.0384113844
247 1 17.1923863591 0.4984519558 -3.3840895985
248 1 16.1963680725 2.0032492617 -1.5765893287
249 1 15.1958220511 3.5094442726 0.2309109571
250 1 14.1890801453 5.0170272750 2.0384112619
251 1 17.6929435809 3.0091944265 -3.3840897268
252 1 16.6876605141 4.5158681928 -1.5765894354
253 1 15.6774911992 6.0232879326 0.2309108674
254 1 14.6634446014 7.5309218621 2.0384111626
255 1 18.1795750351 5.5214368195 -3.3840898299
256 1 17.1681948268 7.0283832713 -1.5765895368
257 1 16.1546103077 8.5352976862 0.2309107656
258 1 15.1397392419 10.0420540362 2.0384110622
259 1 18.6612898581 8.0326010691 -3.3840899320
260 1 17.6483017361 9.5389449426 -1.5765896571
261 1 16.6341121809 11.0451308945 0.2309106466
262 1 15.6187022155 12.5510407522 2.0384109481
263 1 19.1443527923 10.5418871821 -3.3840900710
264 1 18.1314842623 12.0473289057 -1.5765897703
265 1 19.6325615289 -13.0194364712 -3.3840901937
266 1 14.6027350101 -12.0118688561 0.2309112464
267 1 13.5886565114 -10.5080944309 2.0384115173
268 1 17.1186615864 -12.5159753988 -3.3840894833
269 1 16.1075101248 -11.0122242421 -1.5765891910
270 1 15.1005049520 -9.5099791701 0.2309110971
271 1 14.0999273489 -8.0093474707 2.0384113655
272 1 17.6173512789 -10.0130196943 -3.3840896301
273 1 16.6159352580 -8.5115713949 -1.5765893432
274 1 15.6199602589 -7.0111573015 0.2309109241
275 1 14.6291663789 -5.5114163713 2.0384111736
276 1 18.1322828659 -7.5124579664 -3.3840897769
277 1 17.1387886362 -6.0118408143 -1.5765895127
278 1 16.1489794657 -4.5114801713 0.2309107457
279 1 15.1619598024 -3.0109810173 2.0384109858
280 1 18.6554074747 -5.0114077397 -3.3840899583
281 1 17.6651655035 -3.5102330165 -1.5765896807
282 1 16.6761376373 -2.0086025322 0.2309105651
283 1 15.6869067268 -0.5061516780 2.0384108376
284 1 19.1774252011 -2.5078722285 -3.3840900957
285 1 18.1855910691 -1.0051692125 -1.5765898498
286 1 17.1923863630 0.4984519645 0.2309104324
287 1 16.1963680592 2.0032492583 2.0384106751
288 1 19.6909045436 -0.0010102881 -3.3840902954
289 1 18.6936624781 1.5035611336 -1.5765899952
290 1 17.6929435916 3.0091944307 0.2309102821
291 1 16.6876605077 4.5158681862 2.0384105587
292 1 20.1920067003 2.5087622484 -3.3840904054
293 1 19.1876683139 4.0147871633 -1.5765901179
294 1 18.1795750381 5.5214368223 0.2309101494
295 1 17.1681948326 7.0283832590 2.0384104595
296 1 20.6821985608 5.0197892354 -3.3840905185
297 1 19.6728077001 6.5261616263 -1.5765902384
298 1 18.6612898580 8.0326010688 0.2309100503
299 1 17.6483017459 9.5389449140 2.0384103397
300 1 21.1677350835 7.5301667427 -3.3840906369
301 1 20.1565503893 9.0361161024 -1.5765903677
302 1 19.1443527943 10.5418871815 0.2309099442
303 1 18.1314842433 12.0473288959 2.0384102240
304 1 21.6540024131 10.0389851686 -3.3840907497
305 1 20.6431439081 11.5441041542 -1.5765904777
306 1 19.6325615340 -13.0194364727 0.2309098376
307 1 22.1449094968 12.5456926885 -3.3840908713
308 1 17.1186615780 -12.5159754045 0.2309105119
309 1 16.1075101151 -11.0122242387 2.0384108058
310 1 18.6234209695 -11.5156759580 -1.5765898907
311 1 17.6173512864 -10.0130196852 0.2309103735
312 1 16.6159352491 -8.5115714024 2.0384106570
313 1 20.1318589543 -10.5156942881 -3.3840903377
314 1 19.1299830834 -9.0136609177 -1.5765900538
315 1 18.1322828727 -7.5124579664 0.2309102082
316 1 17.1387886451 -6.0118408356 2.0384104867
317 1 20.6435312863 -8.0138127978 -3.3840904596
318 1 19.6479570165 -6.5124942109 -1.5765902074
319 1 18.6554074782 -5.0114077342 0.2309100460
320 1 17.6651654882 -3.5102330208 2.0384103252
321 1 21.1619900510 -5.5116533113 -3.3840906362
322 1 20.1691833728 -4.0099337871 -1.5765903663
323 1 19.1774252108 -2.5078722321 0.2309098876
324 1 18.1855910631 -1.0051692366 2.0384101511
325 1 21.6798656942 -3.0075716870 -3.3840907655
326 1 20.6859149949 -1.5046552968 -1.5765905158
327 1 19.6909045413 -0.0010102876 0.2309097285
328 1 18.6936624965 1.5035611364 2.0384100081
329 1 22.1910883407 -0.5008523677 -3.3840909208
330 1 21.1928873405 1.0035436469 -1.5765906766
331 1 20.1920067087 2.5087622471 0.2309096152
332 1 19.1876682897 4.0147871691 2.0384098822
333 1 22.6925651831 2.0081772049 -3.3840910567
334 1 21.6888508630 3.5137230856 -1.5765907896
335 1 20.6821985582 5.0197892443 0.2309094972
336 1 19.6728076871 6.5261616254 2.0384097621
337 1 23.1853834894 4.5182622312 -3.3840911880
338 1 22.1775075067 6.0241620862 -1.5765909020
339 1 21.1677350808 7.5301667407 0.2309093598
340 1 20.1565503863 9.0361161135 2.0384096361
341 1 23.6740496936 7.0279512355 -3.3840913025
342 1 22.6644541672 8.5335502477 -1.5765910365
343 1 21.6540024058 10.0389851613 0.2309092482
344 1 20.6431439222 11.5441041624 2.0384095243
345 1 24.1630714453 9.5363736706 -3.3840914322
346 1 23.1538234282 11.0412567045 -1.5765911385
347 1 22.1449095058 12.5456926942 0.2309091161
348 1 24.6560422839 12.0430416738 -3.3840915385
349 1 18.6234209515 -11.5156759552 2.0384101025
350 1 21.1372097245 -12.0186464361 -1.5765905927
351 1 20.1318589607 -10.5156942764 0.2309096787
352 1 19.1299830685 -9.0136609036 2.0384099583
353 1 22.6446104255 -11.0180890767 -3.3840909992
354 1 21.6424596569 -9.5156215271 -1.5765907397
355 1 20.6435312900 -8.0138127979 0.2309095311
356 1 19.6479570337 -6.5124942162 2.0384097844
357 1 23.1538702203 -8.5151966411 -3.3840911505
358 1 22.1567036549 -7.0133226632 -1.5765908759
359 1 21.1619900538 -5.5116533088 0.2309093742
360 1 20.1691833654 -4.0099337706 2.0384096395
361 1 23.6686615182 -6.0121482607 -3.3840912931
362 1 22.6738160381 -4.5099883888 -1.5765910320
363 1 21.6798656916 -3.0075716855 0.2309092082
364 1 20.6859149864 -1.5046553122 2.0384094822
365 1 24.1832083653 -3.5076157769 -3.3840914599
366 1 23.1875505331 -2.0045206255 -1.5765911893
367 1 22.1910883412 -0.5008523581 0.2309090673
368 1 21.1928873662 1.0035436161 2.0384093231
369 1 24.6925915062 -1.0009973101 -3.3840916180
370 1 23.6936146631 0.5032677432 -1.5765913386
371 1 22.6925651891 2.0081772108 0.2309089290
372 1 21.6888508682 3.5137230573 2.0384092119
373 1 25.1943003172 1.5074621067 -3.3840917424
374 1 24.1910028816 3.0126467665 -1.5765914670
375 1 23.1853834862 4.5182622242 0.2309088090
376 1 22.1775075111 6.0241620808 2.0384090927
377 1 25.6890914546 4.0168084929 -3.3840918453
378 1 24.6823833841 5.5223231062 -1.5765915765
379 1 23.6740496945 7.0279512313 0.2309087168
380 1 22.6644541559 8.5335502417 2.0384089651
381 1 26.1802961657 6.5259139415 -3.3840919795
382 1 25.1720447819 8.0312132023 -1.5765917027
383 1 24.1630714364 9.5363736685 0.2309085760
384 1 23.1538234399 11.0412567064 2.0384088592
385 1 26.6716263257 9.0340038442 -3.3840921149
386 1 25.6636754534 10.5387068613 -1.5765918247
387 1 24.6560422781 12.0430416753 0.2309084497
388 1 27.1662132105 11.5406562476 -3.3840921993
389 1 26.1603978526 -13.0236178762 -1.5765919467
390 1 21.1372097414 -12.0186464275 2.0384094055
391 1 23.6494116223 -12.5212645902 -1.5765912656
392 1 22.6446104325 -11.0180890685 0.2309090097
393 1 21.6424596435 -9.5156215037 2.0384092646
394 1 25.1560205855 -11.5202695769 -3.3840916697
395 1 24.1536938076 -10.0174725064 -1.5765913974
396 1 23.1538702265 -8.5151966474 0.2309088475
397 1 22.1567036624 -7.0133226656 2.0384091141
398 1 25.6634601958 -9.0165957808 -3.3840918115
399 1 24.6650733619 -7.5142839383 -1.5765915533
400 1 23.6686615230 -6.0121482585 0.2309087276
401 1 22.6738160159 -4.5099883806 2.0384089606
402 1 26.1753751762 -6.5128383356 -3.3840919582
403 1 25.1789131718 -5.0103232383 -1.5765916830
404 1 24.1832083646 -3.5076157731 0.2309085702
405 1 23.1875504985 -2.0045206217 2.0384088134
406 1 26.6872544482 -4.0079352201 -3.3840920796
407 1 25.6902243259 -2.5046907646 -1.5765918376
408 1 24.6925915043 -1.0009973110 0.2309084124
409 1 23.6936146628 0.5032677444 2.0384086665
410 1 27.1951366350 -1.5013849555 -3.3840922319
411 1 26.1955225214 0.0027845073 -1.5765919913
412 1 25.1943003138 1.5074621108 0.2309082702
413 1 24.1910029031 3.0126467807 2.0384085365
414 1 27.6969718303 1.0066359884 -3.3840923943
415 1 26.6939540343 2.5115448244 -1.5765921254
416 1 25.6890914585 4.0168084975 0.2309081443
417 1 24.6823833928 5.5223231015 2.0384084273
418 1 28.1932620111 3.5153993781 -3.3840925242
419 1 27.1874606565 5.0206022230 -1.5765922607
420 1 26.1802961609 6.5259139417 0.2309080219
421 1 25.1720447816 8.0312131975 2.0384083003
422 1 28.6865123917 6.0240193171 -3.3840926812
423 1 27.6793725796 7.5290678667 -1.5765923706
424 1 26.6716263194 9.0340038394 0.2309079009
425 1 25.6636754561 10.5387068668 2.0384081659
426 1 29.1797481811 8.5318320111 -3.3840927575
427 1 28.1728438635 10.0363939274 -1.5765924862
428 1 27.1662132076 11.5406562497 0.2309077950
429 1 26.1603978566 -13.0236178910 2.0384080524
430 1 29.6756191220 11.0384779061 -3.3840928631
431 1 28.6704384023 12.5423585602 -1.5765926016
432 1 23.6494116345 -12.5212646007 2.0384087337
433 1 25.1560205941 -11.5202695789 0.2309083419
434 1 24.1536937940 -10.0174725138 2.0384086041
435 1 27.6663928482 -12.0222845881 -3.3840923396
436 1 26.6639483951 -10.5192338148 -1.5765920605
437 1 25.6634601970 -9.0165957857 0.2309082012
438 1 24.6650733697 -7.5142839560 2.0384084480
439 1 28.1724415724 -9.5180024975 -3.3840924672
440 1 27.1731163699 -8.0153458794 -1.5765922022
441 1 26.1753751624 -6.5128383384 0.2309080478
442 1 25.1789131930 -5.0103232433 2.0384083201
443 1 28.6821007076 -7.0136805790 -3.3840925906
444 1 27.6843597279 -5.5108797860 -1.5765923400
445 1 26.6872544527 -4.0079352215 0.2309079059
446 1 25.6902243385 -2.5046907700 2.0384081582
447 1 29.1918469758 -4.5084738828 -3.3840927460
448 1 28.1937156059 -3.0051049879 -1.5765924933
449 1 27.1951366469 -1.5013849558 0.2309077615
450 1 26.1955225312 0.0027845139 2.0384080131
451 1 29.6985041324 -2.0019674163 -3.3840928760
452 1 28.6983634185 -0.4978668841 -1.5765926260
453 1 27.6969718266 1.0066359841 0.2309076072
454 1 26.6939540460 2.5115448397 2.0384078788
455 1 30.2003928653 0.5057155215 -3.3840930297
456 1 29.1975621219 2.0104119270 -1.5765927677
457 1 28.1932620064 3.5153993713 0.2309074731
458 1 27.1874606559 5.0206022165 2.0384077407
459 1 30.6978302052 3.0140172773 -3.3840931699
460 1 29.6927353291 4.5189689114 -1.5765929148
461 1 28.6865123842 6.0240193179 0.2309073506
462 1 27.6793725968 7.5290678770 2.0384076253
463 1 31.1927215681 5.5222379232 -3.3840932951
464 1 30.1864885362 7.0270794091 -1.5765930407
465 1 29.1797481824 8.5318320114 0.2309072303
466 1 28.1728438636 10.0363939290 2.0384075057
467 1 31.6875153126 8.0298208010 -3.3840934239
468 1 30.6814554174 9.5342701884 -1.5765931574
469 1 29.6756191183 11.0384779061 0.2309071428
470 1 28.6704383935 12.5423585626 2.0384074049
471 1 32.1844154216 10.5364627951 -3.3840935365
472 1 31.1797359234 12.0403668313 -1.5765932473
473 1 32.6848765086 -13.0259543559 -3.3840936455
474 1 27.6663928513 -12.0222845945 0.2309076665
475 1 26.6639483851 -10.5192338126 2.0384079359
476 1 30.1759539882 -12.5241703674 -3.3840929910
477 1 29.1734295737 -11.0209226306 -1.5765927265
478 1 28.1724415727 -9.5180024926 0.2309075455
479 1 27.1731163842 -8.0153458735 2.0384077944
480 1 30.6809313245 -10.0194121295 -3.3840931023
481 1 29.6808819904 -8.5164839350 -1.5765928534
482 1 28.6821007013 -7.0136805832 0.2309074064
483 1 27.6843597376 -5.5108797896 2.0384076597
484 1 31.1888197516 -7.5146411137 -3.3840932410
485 1 30.1900681143 -6.0116110678 -1.5765929717
486 1 29.1918469749 -4.5084738927 0.2309072521
487 1 28.1937156095 -3.0051049819 2.0384075034
488 1 31.6968629852 -5.0091863884 -3.3840933808
489 1 30.6978486724 -3.5057141517 -1.5765931267
490 1 29.6985041345 -2.0019674183 0.2309071163
491 1 28.6983634252 -0.4978668882 2.0384073760
492 1 32.2025207573 -2.5027063067 -3.3840935143
493 1 31.2019443415 -0.9986550488 -1.5765932799
494 1 30.2003928654 0.5057155288 0.2309069809
495 1 29.1975621323 2.0104119140 2.0384072310
496 1 32.7044154555 0.0047155795 -3.3840936587
497 1 31.7017086622 1.5092474896 -1.5765934112
498 1 30.6978301985 3.0140172818 0.2309068416
499 1 29.6927353178 4.5189689164 2.0384070776
500 1 33.2027344675 2.5126511237 -3.3840938048
501 1 32.1981908737 4.0174010902 -1.5765935640
502 1 31.1927215656 5.5222379186 0.2309067031
503 1 30.1864885751 7.0270794241 2.0384069541
504 1 33.6989375971 5.0205458034 -3.3840939899
505 1 32.6934378994 6.5252177860 -1.5765937032
506 1 31.6875153037 8.0298207912 0.2309065477
507 1 30.6814554094 9.5342701779 2.0384068396
508 1 34.1949967796 7.5279390035 -3.3840940945
509 1 33.1896176711 9.0322977794 -1.5765938144
510 1 32.1844154173 10.5364628019 0.2309064651
511 1 31.1797359036 12.0403668297 2.0384067493
512 1 34.6927258579 10.0345771083 -3.3840942032
513 1 33.6884461371 11.5384996658 -1.5765939177
514 1 32.6848765148 -13.0259543439 0.2309063694
515 1 35.1932935943 12.5404689090 -3.3840943138
516 1 30.1759539902 -12.5241703706 0.2309070034
517 1 29.1734295798 -11.0209226345 2.0384072718
518 1 31.6822983194 -11.5225528550 -1.5765933775
519 1 30.6809313206 -10.0194121359 0.2309068788
520 1 29.6808820106 -8.5164839566 2.0384071457
521 1 33.1890247687 -10.5208218384 -3.3840937516
522 1 32.1884149816 -9.0176795363 -1.5765934905
523 1 31.1888197529 -7.5146411194 0.2309067580
524 1 30.1900681214 -6.0116110696 2.0384070244
525 1 33.6955217795 -8.0156934580 -3.3840938691
526 1 32.6959721241 -6.5124797429 -1.5765936376
527 1 31.6968629809 -5.0091863862 0.2309066496
528 1 30.6978486499 -3.5057141221 2.0384068731
529 1 34.2022066770 -5.5100365523 -3.3840940152
530 1 33.2024848733 -4.0064787808 -1.5765937746
531 1 32.2025207631 -2.5027063133 0.2309064647
532 1 31.2019443595 -0.9986550499 2.0384067150
533 1 34.7070500207 -3.0035709635 -3.3840941926
534 1 33.7061134443 -1.4995546678 -1.5765939330
535 1 32.7044154444 0.0047155787 0.2309063193
536 1 31.7017086896 1.5092474774 2.0384065914
537 1 35.2089213516 -0.4963510677 -3.3840943246
538 1 34.2062952946 1.0080530471 -1.5765940707
539 1 33.2027344659 2.5126511182 0.2309061954
540 1 32.1981908471 4.0174010915 2.0384064313
541 1 35.7079197113 2.0112937523 -3.3840944603
542 1 34.7038063364 3.5158822679 -1.5765942170
543 1 33.6989375896 5.0205458033 0.2309060512
544 1 32.6934378968 6.5252178134 2.0384062991
545 1 36.2051684797 4.5189236795 -3.3840946246
546 1 35.2002583110 6.0234578158 -1.5765943585
547 1 34.1949967759 7.5279390133 0.2309058831
548 1 33.1896176510 9.0322977840 2.0384061842
549 1 36.7022507138 7.0261609462 -3.3840947572
550 1 35.6974197794 8.5304463646 -1.5765944776
551 1 34.6927258562 10.0345771052 0.2309058080
552 1 33.6884461264 11.5384996705 2.0384060777
553 1 37.2006490653 9.5327944079 -3.3840948804
554 1 36.1966904527 11.0367312272 -1.5765946055
555 1 35.1932935981 12.5404689065 0.2309056824
556 1 37.7013090390 12.0388300585 -3.3840949929
557 1 31.6822983181 -11.5225528484 2.0384066243
558 1 34.1906803533 -12.0241356086 -1.5765940412
559 1 33.1890247734 -10.5208218381 0.2309062247
560 1 32.1884149912 -9.0176795701 2.0384065060
561 1 35.6967986724 -11.0222299986 -3.3840944195
562 1 34.6957543239 -9.5189186710 -1.5765941479
563 1 33.6955217831 -8.0156934615 0.2309061222
564 1 32.6959721334 -6.5124797879 2.0384063603
565 1 36.2022013369 -8.5168171116 -3.3840945382
566 1 35.2020217959 -7.0134563943 -1.5765942756
567 1 34.2022066746 -5.5100365520 0.2309060031
568 1 33.2024848523 -4.0064787709 2.0384062281
569 1 36.7078036001 -6.0109957693 -3.3840946672
570 1 35.7075153997 -4.5073673071 -1.5765944211
571 1 34.7070500256 -3.0035709644 0.2309058148
572 1 33.7061134353 -1.4995546558 2.0384060645
573 1 37.2119843327 -3.5045366286 -3.3840948273
574 1 36.2107506689 -2.0005448826 -1.5765945759
575 1 35.2089213475 -0.4963510649 0.2309056764
576 1 34.2062952880 1.0080530364 2.0384059321
577 1 37.7138158735 -0.9974733831 -3.3840949887
578 1 36.7112407411 0.5068312617 -1.5765947320
579 1 35.7079197182 2.0112937477 0.2309055304
580 1 34.7038063211 3.5158822434 2.0384057819
581 1 38.2133382890 1.5099405137 -3.3840951454
582 1 37.2095604249 3.0144000611 -1.5765948918
583 1 36.2051684755 4.5189236773 0.2309053861
584 1 35.2002582998 6.0234578268 2.0384056326
585 1 38.7114185973 4.0173562023 -3.3840952962
586 1 37.7069800727 5.5217786667 -1.5765950226
587 1 36.7022507224 7.0261609492 0.2309052358
588 1 35.6974197739 8.5304463515 2.0384055289
589 1 39.2093247212 6.5244656744 -3.3840954401
590 1 38.2049345518 8.0286915720 -1.5765951675
591 1 37.2006490626 9.5327944166 0.2309051312
592 1 36.1966904326 11.0367312346 2.0384054046
593 1 39.7082637387 9.0310937745 -3.3840955585
594 1 38.7045641397 10.5350413568 -1.5765952756
595 1 37.7013090402 12.0388300591 0.2309050125
596 1 40.2090042500 11.5372428054 -3.3840956631
597 1 39.2063581284 -13.0271928063 -1.5765953809
598 1 34.1906803457 -12.0241356025 2.0384059660
599 1 36.6986743645 -12.5256798854 -1.5765947010
600 1 35.6967986706 -11.0222299957 0.2309055695
601 1 34.6957543126 -9.5189186744 2.0384058620
602 1 38.2043146373 -11.5236357102 -3.3840950994
603 1 37.2029330873 -10.0201907348 -1.5765948281
604 1 36.2022013350 -8.5168171093 0.2309054614
605 1 35.2020217977 -7.0134564237 2.0384057263
606 1 38.7088561486 -9.0179961330 -3.3840952202
607 1 37.7081796412 -7.5145177943 -1.5765949370
608 1 36.7078036000 -6.0109957669 0.2309053274
609 1 35.7075154155 -4.5073673356 2.0384055818
610 1 39.2135961887 -6.5120412393 -3.3840953409
611 1 38.2128549380 -5.0083546624 -1.5765950849
612 1 37.2119843386 -3.5045366376 0.2309051859
613 1 36.2107506453 -2.0005448837 2.0384054197
614 1 39.7172389370 -4.0055835159 -3.3840954797
615 1 38.7157608004 -2.5016089557 -1.5765952309
616 1 37.7138158747 -0.9974733876 0.2309050308
617 1 36.7112407300 0.5068312728 2.0384052722
618 1 40.2190229281 -1.4986419086 -3.3840956396
619 1 39.2164783015 0.0055851285 -1.5765953911
620 1 38.2133382890 1.5099405192 0.2309048528
621 1 37.2095604340 3.0144000653 2.0384051129
622 1 40.7189497868 1.0085884724 -3.3840958070
623 1 39.7154331130 2.5129451592 -1.5765955480
624 1 38.7114185970 4.0173562051 0.2309047092
625 1 37.7069800519 5.5217786653 2.0384049772
626 1 41.2176897880 3.5158312147 -3.3840959657
627 1 40.2136272043 5.0201635291 -1.5765957036
628 1 39.2093247293 6.5244656758 0.2309045743
629 1 38.2049345392 8.0286915602 2.0384048334
630 1 41.7162572026 6.0228363216 -3.3840961016
631 1 40.7122207609 7.5270139055 -1.5765958318
632 1 39.7082637385 9.0310937751 0.2309044484
633 1 38.7045641199 10.5350413515 2.0384047263
634 1 42.2156326863 8.5294587619 -3.3840962353
635 1 41.2121424393 10.0334142209 -1.5765959538