ITEM: TIMESTEP
0
ITEM: NUMBER OF ATOMS
3182
ITEM: BOX BOUNDS xy xz yz mm pp pp
-1.0009999999999999e+02 1.0009999999999999e+02 0.0000000000000000e+00
-1.3034063250000001e+01 1.3034063250000001e+01 0.0000000000000000e+00
-3.6150000000000002e+00 3.6150000000000002e+00 0.0000000000000000e+00
ITEM: ATOMS id type x y z c_csym c_energy
1 1 0.50131 8.59793 -3.1575 0.000307264 -3.55107
2 1 1.00262 11.1378 -3.1575 0.000731584 -3.53606
3 1 0.50131 -4.44875 -3.1575 6.44069 -3.34819
4 1 1.00262 -1.93667 -3.1575 6.46009 -3.33975
5 1 1.50393 0.577896 -3.1575 6.47341 -3.44589
6 1 0.50131 2.06375 -1.35 1.94428e-05 -3.54504
7 1 2.00524 3.09569 -3.1575 4.03273e-05 -3.53679
8 1 1.00262 4.58346 -1.35 5.49402e-05 -3.53353
9 1 2.50655 5.61804 -3.1575 8.92594e-05 -3.53969
10 1 1.50393 7.10844 -1.35 0.000153314 -3.53958
11 1 0.50131 8.59793 0.4575 0.000307264 -3.55107
12 1 3.00786 8.14716 -3.1575 0.000198545 -3.53934
13 1 2.00524 9.64228 -1.35 0.000413326 -3.53873
14 1 1.00262 11.1378 0.4575 0.000731584 -3.50763
15 1 3.50917 10.6862 -3.1575 0.000802184 -3.54014
16 1 2.50655 12.1906 -1.35 0.00139811 -3.53959
17 1 1.50393 -12.3759 -3.1575 0.0157135 -3.52682
18 1 0.501311 -10.9259 -1.35 6.35927 -3.34956
19 1 2.00524 -9.89735 -3.1575 0.000572517 -3.52439
20 1 1.00262 -8.43088 -1.35 6.39164 -3.33607
21 1 2.50655 -7.40258 -3.1575 0.000172475 -3.5263
22 1 1.50393 -5.92736 -1.35 6.42842 -3.44102
23 1 0.50131 -4.44875 0.4575 12.8984 -3.24447
24 1 3.00786 -4.89968 -3.1575 7.23962e-05 -3.53357
25 1 2.00524 -3.41916 -1.35 4.01792e-05 -3.53174
26 1 1.00262 -1.93667 0.4575 6.46009 -3.34019
27 1 3.50917 -2.39157 -3.1575 4.33629e-05 -3.53285
28 1 2.50655 -0.90738 -1.35 2.94983e-05 -3.53385
29 1 1.50393 0.577896 0.4575 6.47341 -3.44589
30 1 0.50131 2.06375 2.265 6.47657 -3.46173
31 1 4.01048 0.120798 -3.1575 3.90098e-05 -3.53664
32 1 3.00786 1.60796 -1.35 3.63911e-05 -3.54074
33 1 2.00524 3.09569 0.4575 4.03273e-05 -3.53679
34 1 1.00262 4.58346 2.265 5.49402e-05 -3.53396
35 1 4.51179 2.63743 -3.1575 4.9466e-05 -3.53988
36 1 3.50917 4.12754 -1.35 6.11846e-05 -3.5398
37 1 2.50655 5.61804 0.4575 8.92594e-05 -3.53969
38 1 1.50393 7.10844 2.265 0.000153314 -3.53958
39 1 5.0131 5.15897 -3.1575 7.49311e-05 -3.53974
40 1 4.01048 6.65267 -1.35 0.000112959 -3.53957
41 1 3.00786 8.14716 0.4575 0.000198545 -3.53934
42 1 2.00524 9.64228 2.265 0.000413326 -3.53873
43 1 5.51441 7.6865 -3.1575 0.000115545 -3.53945
44 1 4.51179 9.18525 -1.35 0.000196562 -3.53878
45 1 3.50917 10.6862 0.4575 0.000802184 -3.54014
46 1 2.50655 12.1906 2.265 0.00139811 -3.53959
47 1 6.01572 10.2212 -3.1575 0.000155983 -3.53901
48 1 5.0131 11.7271 -1.35 0.000839526 -3.54291
49 1 6.51703 12.7631 -3.1575 0.00236131 -3.54183
50 1 1.50393 -12.3759 0.4575 6.30179 -3.41282
51 1 0.501311 -10.9259 2.265 12.7502 -3.21342
52 1 4.01048 -12.8188 -3.1575 0.0227449 -3.53876
53 1 3.00786 -11.3588 -1.35 0.00159384 -3.52653
54 1 2.00524 -9.89735 0.4575 6.38961 -3.38755
55 1 1.00262 -8.43088 2.265 12.8139 -3.17066
56 1 4.51179 -10.3434 -3.1575 0.000385678 -3.53536
57 1 3.50917 -8.87431 -1.35 0.000291527 -3.53203
58 1 2.50655 -7.40258 0.4575 6.42054 -3.41883
59 1 1.50393 -5.92736 2.265 12.8567 -3.29077
60 1 5.0131 -7.85407 -3.1575 0.000170068 -3.53941
61 1 4.01048 -6.37794 -1.35 0.000118476 -3.53637
62 1 3.00786 -4.89968 0.4575 7.23962e-05 -3.50886
63 1 2.00524 -3.41916 2.265 6.45181 -3.39381
64 1 5.51441 -5.35554 -3.1575 8.7539e-05 -3.53977
65 1 4.51179 -3.87432 -1.35 6.32384e-05 -3.53985
66 1 3.50917 -2.39157 0.4575 4.33629e-05 -3.53285
67 1 2.50655 -0.90738 2.265 6.46766 -3.42534
68 1 6.01572 -2.85057 -3.1575 5.67093e-05 -3.53992
69 1 5.0131 -1.36544 -1.35 4.62355e-05 -3.53993
70 1 4.01048 0.120798 0.4575 3.90098e-05 -3.53664
71 1 3.00786 1.60796 2.265 3.63911e-05 -3.51603
72 1 6.51703 -0.340463 -3.1575 4.73691e-05 -3.53997
73 1 5.51441 1.14803 -1.35 4.60923e-05 -3.53993
74 1 4.51179 2.63743 0.4575 4.9466e-05 -3.53988
75 1 3.50917 4.12754 2.265 6.11846e-05 -3.5398
76 1 7.01834 2.17434 -3.1575 4.92141e-05 -3.53994
77 1 6.01572 3.66617 -1.35 5.72159e-05 -3.53986
78 1 5.0131 5.15897 0.4575 7.49311e-05 -3.53974
79 1 4.01048 6.65267 2.265 0.000112959 -3.53957
80 1 7.51965 4.69392 -3.1575 5.80413e-05 -3.53983
81 1 6.51703 6.18949 -1.35 7.73091e-05 -3.53968
82 1 5.51441 7.6865 0.4575 0.000115545 -3.53945
83 1 4.51179 9.18525 2.265 0.000196562 -3.53878
84 1 8.02096 7.21857 -3.1575 6.93607e-05 -3.53965
85 1 7.01834 8.71864 -1.35 9.92974e-05 -3.53937
86 1 6.01572 10.2212 0.4575 0.000155983 -3.53901
87 1 5.0131 11.7271 2.265 0.000839526 -3.54291
88 1 8.52227 9.74839 -3.1575 7.53362e-05 -3.53932
89 1 7.51965 11.2538 -1.35 8.38482e-05 -3.54074
90 1 6.51703 12.7631 0.4575 0.00236131 -3.54183
91 1 9.02358 12.2828 -3.1575 0.000505019 -3.54231
92 1 4.01048 -12.8188 0.4575 0.0227449 -3.5393
93 1 3.00786 -11.3588 2.265 0.00159384 -3.52708
94 1 5.51441 -11.812 -1.35 0.0035002 -3.5368
95 1 4.51179 -10.3434 0.4575 0.000385678 -3.53589
96 1 3.50917 -8.87431 2.265 0.000291527 -3.53257
97 1 7.01834 -10.8032 -3.1575 0.000271902 -3.53735
98 1 6.01572 -9.32877 -1.35 0.000204263 -3.53877
99 1 5.0131 -7.85407 0.4575 0.000170068 -3.53994
100 1 4.01048 -6.37794 2.265 0.000118476 -3.5369
101 1 7.51965 -8.31435 -3.1575 0.000123559 -3.53961
102 1 6.51703 -6.83538 -1.35 0.000110692 -3.53967
103 1 5.51441 -5.35554 0.4575 8.7539e-05 -3.53977
104 1 4.51179 -3.87432 2.265 6.32384e-05 -3.54037
105 1 8.02097 -5.81759 -3.1575 7.83222e-05 -3.53983
106 1 7.01834 -4.33456 -1.35 6.84783e-05 -3.53989
107 1 6.01572 -2.85057 0.4575 5.67093e-05 -3.53992
108 1 5.0131 -1.36544 2.265 4.62355e-05 -3.54045
109 1 8.52228 -3.31457 -3.1575 5.56036e-05 -3.53997
110 1 7.51965 -1.82798 -1.35 5.11487e-05 -3.53998
111 1 6.51703 -0.340463 0.4575 4.73691e-05 -3.53997
112 1 5.51441 1.14803 2.265 4.60923e-05 -3.53993
113 1 9.02359 -0.806345 -3.1575 4.56829e-05 -3.54002
114 1 8.02096 0.683519 -1.35 4.62019e-05 -3.53999
115 1 7.01834 2.17434 0.4575 4.92141e-05 -3.53994
116 1 6.01572 3.66617 2.265 5.72159e-05 -3.53986
117 1 9.5249 1.70653 -3.1575 4.27748e-05 -3.54
118 1 8.52227 3.19965 -1.35 4.80196e-05 -3.53994
119 1 7.51965 4.69392 0.4575 5.80413e-05 -3.53983
120 1 6.51703 6.18949 2.265 7.73091e-05 -3.53968
121 1 10.0262 4.2238 -3.1575 4.32778e-05 -3.53993
122 1 9.02359 5.7204 -1.35 5.27905e-05 -3.53982
123 1 8.02096 7.21857 0.4575 6.93607e-05 -3.53965
124 1 7.01834 8.71864 2.265 9.92974e-05 -3.53937
125 1 10.5275 6.74533 -3.1575 4.39907e-05 -3.53981
126 1 9.5249 8.24577 -1.35 5.59331e-05 -3.53966
127 1 8.52227 9.74839 0.4575 7.53362e-05 -3.53932
128 1 7.51965 11.2538 2.265 8.38482e-05 -3.54074
129 1 11.0288 9.27081 -3.1575 4.19783e-05 -3.53951
130 1 10.0262 10.7754 -1.35 0.000123893 -3.54047
131 1 9.02358 12.2828 0.4575 0.000505019 -3.54231
132 1 11.5301 11.7995 -3.1575 0.000254433 -3.54186
133 1 5.51441 -11.812 2.265 0.0035002 -3.5368
134 1 8.02097 -12.2789 -1.35 0.00527845 -3.5391
135 1 7.01834 -10.8032 0.4575 0.000271902 -3.53735
136 1 6.01572 -9.32877 2.265 0.000204263 -3.53877
137 1 9.5249 -11.2729 -3.1575 0.000536469 -3.53727
138 1 8.52228 -9.79325 -1.35 0.000119284 -3.53846
139 1 7.51965 -8.31435 0.4575 0.000123559 -3.53961
140 1 6.51703 -6.83538 2.265 0.000110692 -3.53967
141 1 10.0262 -8.78246 -3.1575 7.8306e-05 -3.5398
142 1 9.02359 -7.30005 -1.35 8.2387e-05 -3.53978
143 1 8.02097 -5.81759 0.4575 7.83222e-05 -3.53983
144 1 7.01834 -4.33456 2.265 6.84783e-05 -3.53989
145 1 10.5275 -6.28579 -3.1575 5.8901e-05 -3.53992
146 1 9.5249 -4.80041 -1.35 5.87888e-05 -3.53994
147 1 8.52228 -3.31457 0.4575 5.56036e-05 -3.53997
148 1 7.51965 -1.82798 2.265 5.11487e-05 -3.53998
149 1 11.0288 -3.78369 -3.1575 4.58171e-05 -3.54002
150 1 10.0262 -2.29535 -1.35 4.59949e-05 -3.54002
151 1 9.02359 -0.806345 0.4575 4.56829e-05 -3.54002
152 1 8.02096 0.683519 2.265 4.62019e-05 -3.53999
153 1 11.5301 -1.27682 -3.1575 3.818e-05 -3.54006
154 1 10.5275 0.214422 -1.35 3.99687e-05 -3.54004
155 1 9.5249 1.70653 0.4575 4.27748e-05 -3.54
156 1 8.52227 3.19965 2.265 4.80196e-05 -3.53994
157 1 12.0314 1.23432 -3.1575 3.4044e-05 -3.54006
158 1 11.0288 2.72851 -1.35 3.762e-05 -3.54001
159 1 10.0262 4.2238 0.4575 4.32778e-05 -3.53993
160 1 9.02359 5.7204 2.265 5.27905e-05 -3.53982
161 1 12.5328 3.74939 -3.1575 3.15555e-05 -3.54001
162 1 11.5301 5.24664 -1.35 3.64622e-05 -3.53993
163 1 10.5275 6.74533 0.4575 4.39907e-05 -3.53981
164 1 9.5249 8.24577 2.265 5.59331e-05 -3.53966
165 1 13.0341 6.26807 -3.1575 2.91115e-05 -3.53994
166 1 12.0314 7.76852 -1.35 3.43535e-05 -3.53983
167 1 11.0288 9.27081 0.4575 4.19783e-05 -3.53951
168 1 10.0262 10.7754 2.265 0.000123893 -3.54047
169 1 13.5354 8.78989 -3.1575 2.57023e-05 -3.53984
170 1 12.5328 10.2936 -1.35 3.02802e-05 -3.53976
171 1 11.5301 11.7995 0.4575 0.000254433 -3.54186
172 1 14.0367 11.3142 -3.1575 2.02593e-05 -3.54071
173 1 13.0341 12.821 -1.35 0.000788812 -3.54123
174 1 8.02097 -12.2789 2.265 0.00527845 -3.5391
175 1 10.5275 -12.7542 -1.35 0.00639058 -3.5401
176 1 9.5249 -11.2729 0.4575 0.000536469 -3.53727
177 1 8.52228 -9.79325 2.265 0.000119284 -3.53846
178 1 12.0314 -11.7494 -3.1575 0.00110415 -3.53862
179 1 11.0288 -10.2654 -1.35 6.70388e-05 -3.53805
180 1 10.0262 -8.78246 0.4575 7.8306e-05 -3.5398
181 1 9.02359 -7.30005 2.265 8.2387e-05 -3.53978
182 1 12.5328 -9.25679 -3.1575 4.76238e-05 -3.53965
183 1 11.5301 -7.77111 -1.35 5.50148e-05 -3.53989
184 1 10.5275 -6.28579 0.4575 5.8901e-05 -3.53992
185 1 9.5249 -4.80041 2.265 5.87888e-05 -3.53994
186 1 13.0341 -6.75941 -3.1575 4.05645e-05 -3.53999
187 1 12.0314 -5.27161 -1.35 4.41578e-05 -3.54001
188 1 11.0288 -3.78369 0.4575 4.58171e-05 -3.54002
189 1 10.0262 -2.29535 2.265 4.59949e-05 -3.54002
190 1 13.5354 -4.25754 -3.1575 3.41095e-05 -3.54006
191 1 12.5328 -2.7674 -1.35 3.64396e-05 -3.54007
192 1 11.5301 -1.27682 0.4575 3.818e-05 -3.54006
193 1 10.5275 0.214422 2.265 3.99687e-05 -3.54004
194 1 14.0367 -1.75155 -3.1575 2.9198e-05 -3.5401
195 1 13.0341 -0.258963 -1.35 3.14705e-05 -3.54008
196 1 12.0314 1.23432 0.4575 3.4044e-05 -3.54006
197 1 11.0288 2.72851 2.265 3.762e-05 -3.54001
198 1 14.538 0.758199 -3.1575 2.55968e-05 -3.5401
199 1 13.5354 2.25332 -1.35 2.81702e-05 -3.54006
200 1 12.5328 3.74939 0.4575 3.15555e-05 -3.54001
201 1 11.5301 5.24664 2.265 3.64622e-05 -3.53993
202 1 15.0393 3.27137 -3.1575 2.2671e-05 -3.54007
203 1 14.0367 4.76911 -1.35 2.54102e-05 -3.54002
204 1 13.0341 6.26807 0.4575 2.91115e-05 -3.53994
205 1 12.0314 7.76852 2.265 3.43535e-05 -3.53983
206 1 15.5406 5.7876 -3.1575 1.98063e-05 -3.54002
207 1 14.538 7.288 -1.35 2.23437e-05 -3.53995
208 1 13.5354 8.78989 0.4575 2.57023e-05 -3.53984
209 1 12.5328 10.2936 2.265 3.02802e-05 -3.53976
210 1 16.0419 8.30644 -3.1575 1.67134e-05 -3.53998
211 1 15.0393 9.80946 -1.35 1.87821e-05 -3.53984
212 1 14.0367 11.3142 0.4575 2.02593e-05 -3.54071
213 1 13.0341 12.821 2.265 0.000788812 -3.54123
214 1 16.5432 10.8273 -3.1575 3.31497e-05 -3.54055
215 1 15.5406 12.3328 -1.35 0.00017871 -3.5415
216 1 10.5275 -12.7542 2.265 0.00639058 -3.5401
217 1 12.0314 -11.7494 0.4575 0.00110415 -3.53862
218 1 11.0288 -10.2654 2.265 6.70388e-05 -3.53805
219 1 14.538 -12.2307 -3.1575 0.00165705 -3.53977
220 1 13.5354 -10.7432 -1.35 8.78205e-05 -3.53883
221 1 12.5328 -9.25679 0.4575 4.76238e-05 -3.53965
222 1 11.5301 -7.77111 2.265 5.50148e-05 -3.53989
223 1 15.0393 -9.73592 -3.1575 2.90131e-05 -3.53942
224 1 14.0367 -8.24741 -1.35 3.5263e-05 -3.54001
225 1 13.0341 -6.75941 0.4575 4.05645e-05 -3.53999
226 1 12.0314 -5.27161 2.265 4.41578e-05 -3.54001
227 1 15.5406 -7.23753 -3.1575 2.6898e-05 -3.54005
228 1 14.538 -5.7475 -1.35 3.09036e-05 -3.54006
229 1 13.5354 -4.25754 0.4575 3.41095e-05 -3.54006
230 1 12.5328 -2.7674 2.265 3.64396e-05 -3.54007
231 1 16.0419 -4.73552 -3.1575 2.4031e-05 -3.5401
232 1 15.0393 -3.24366 -1.35 2.67872e-05 -3.5401
233 1 14.0367 -1.75155 0.4575 2.9198e-05 -3.5401
234 1 13.0341 -0.258963 2.265 3.14705e-05 -3.54008
235 1 16.5432 -2.23004 -3.1575 2.11836e-05 -3.54013
236 1 15.5406 -0.736186 -1.35 2.33664e-05 -3.54012
237 1 14.538 0.758199 0.4575 2.55968e-05 -3.5401
238 1 13.5354 2.25332 2.265 2.81702e-05 -3.54006
239 1 17.0446 0.278651 -3.1575 1.85798e-05 -3.54013
240 1 16.0419 1.77462 -1.35 2.04882e-05 -3.54011
241 1 15.0393 3.27137 0.4575 2.2671e-05 -3.54007
242 1 14.0367 4.76911 2.265 2.54102e-05 -3.54002
243 1 17.5459 2.79028 -3.1575 1.61384e-05 -3.54011
244 1 16.5432 4.28844 -1.35 1.78079e-05 -3.54008
245 1 15.5406 5.7876 0.4575 1.98063e-05 -3.54002
246 1 14.538 7.288 2.265 2.23437e-05 -3.53995
247 1 18.0472 5.30451 -3.1575 1.37201e-05 -3.54008
248 1 17.0445 6.80487 -1.35 1.50772e-05 -3.54004
249 1 16.0419 8.30644 0.4575 1.67134e-05 -3.53998
250 1 15.0393 9.80946 2.265 1.87821e-05 -3.53984
251 1 18.5485 7.82094 -3.1575 1.13047e-05 -3.54005
252 1 17.5459 9.32345 -1.35 1.23297e-05 -3.5399
253 1 16.5432 10.8273 0.4575 3.31497e-05 -3.54055
254 1 15.5406 12.3328 2.265 0.00017871 -3.5415
255 1 19.0498 10.3391 -3.1575 9.05483e-06 -3.54005
256 1 18.0472 11.8436 -1.35 8.3794e-05 -3.54126
257 1 19.5511 12.8584 -3.1575 0.000280715 -3.54086
258 1 14.538 -12.2307 0.4575 0.00165705 -3.53977
259 1 13.5354 -10.7432 2.265 8.78205e-05 -3.53883
260 1 17.0446 -12.7153 -3.1575 0.00210364 -3.54032
261 1 16.0419 -11.2252 -1.35 0.000179595 -3.53866
262 1 15.0393 -9.73592 0.4575 2.90131e-05 -3.53942
263 1 14.0367 -8.24741 2.265 3.5263e-05 -3.54001
264 1 17.5459 -10.2187 -3.1575 1.8004e-05 -3.5391
265 1 16.5432 -8.72787 -1.35 2.24455e-05 -3.54008
266 1 15.5406 -7.23753 0.4575 2.6898e-05 -3.54005
267 1 14.538 -5.7475 2.265 3.09036e-05 -3.54006
268 1 18.0472 -7.7193 -3.1575 1.76505e-05 -3.5401
269 1 17.0446 -6.22733 -1.35 2.09323e-05 -3.5401
270 1 16.0419 -4.73552 0.4575 2.4031e-05 -3.5401
271 1 15.0393 -3.24366 2.265 2.67872e-05 -3.5401
272 1 18.5485 -5.21696 -3.1575 1.64923e-05 -3.54013
273 1 17.5459 -3.72357 -1.35 1.89001e-05 -3.54013
274 1 16.5432 -2.23004 0.4575 2.11836e-05 -3.54013
275 1 15.5406 -0.736186 2.265 2.33664e-05 -3.54012
276 1 19.0498 -2.71175 -3.1575 1.4937e-05 -3.54015
277 1 18.0472 -1.21675 -1.35 1.6762e-05 -3.54014
278 1 17.0446 0.278651 0.4575 1.85798e-05 -3.54013
279 1 16.0419 1.77462 2.265 2.04882e-05 -3.54011
280 1 19.5511 -0.203838 -3.1575 1.32211e-05 -3.54015
281 1 18.5485 1.29291 -1.35 1.46441e-05 -3.54014
282 1 17.5459 2.79028 0.4575 1.61384e-05 -3.54011
283 1 16.5432 4.28844 2.265 1.78079e-05 -3.54008
284 1 20.0524 2.30657 -3.1575 1.14368e-05 -3.54014
285 1 19.0498 3.80514 -1.35 1.25332e-05 -3.54012
286 1 18.0472 5.30451 0.4575 1.37201e-05 -3.54008
287 1 17.0445 6.80487 2.265 1.50772e-05 -3.54004
288 1 20.5537 4.81919 -3.1575 9.62498e-06 -3.54012
289 1 19.5511 6.31958 -1.35 1.04253e-05 -3.54009
290 1 18.5485 7.82094 0.4575 1.13047e-05 -3.54005
291 1 17.5459 9.32345 2.265 1.23297e-05 -3.5399
292 1 21.055 7.33369 -3.1575 7.85494e-06 -3.5401
293 1 20.0524 8.83585 -1.35 8.41141e-06 -3.54006
294 1 19.0498 10.3391 0.4575 9.05483e-06 -3.54005
295 1 18.0472 11.8436 2.265 8.3794e-05 -3.54126
296 1 21.5563 9.84969 -3.1575 6.2486e-06 -3.54006
297 1 20.5537 11.3535 -1.35 6.48246e-06 -3.54059
298 1 19.5511 12.8584 0.4575 0.000280715 -3.54086
299 1 22.0577 12.3667 -3.1575 6.6856e-05 -3.54103
300 1 17.0446 -12.7153 0.4575 0.00210364 -3.54032
301 1 16.0419 -11.2252 2.265 0.000179595 -3.53866
302 1 18.5485 -11.7102 -1.35 0.000378125 -3.53935
303 1 17.5459 -10.2187 0.4575 1.8004e-05 -3.5391
304 1 16.5432 -8.72787 2.265 2.24455e-05 -3.54008
305 1 20.0524 -10.7044 -3.1575 3.07381e-05 -3.53945
306 1 19.0498 -9.21161 -1.35 1.44153e-05 -3.53997
307 1 18.0472 -7.7193 0.4575 1.76505e-05 -3.5401
308 1 17.0446 -6.22733 2.265 2.09323e-05 -3.5401
309 1 20.5537 -8.20402 -3.1575 1.16281e-05 -3.54015
310 1 19.5511 -6.71039 -1.35 1.40295e-05 -3.54013
311 1 18.5485 -5.21696 0.4575 1.64923e-05 -3.54013
312 1 17.5459 -3.72357 2.265 1.89001e-05 -3.54013
313 1 21.055 -5.70128 -3.1575 1.12213e-05 -3.54015
314 1 20.0524 -4.20655 -1.35 1.30801e-05 -3.54015
315 1 19.0498 -2.71175 0.4575 1.4937e-05 -3.54015
316 1 18.0472 -1.21675 2.265 1.6762e-05 -3.54014
317 1 21.5563 -3.19619 -3.1575 1.04002e-05 -3.54017
318 1 20.5537 -1.70015 -1.35 1.1812e-05 -3.54016
319 1 19.5511 -0.203838 0.4575 1.32211e-05 -3.54015
320 1 18.5485 1.29291 2.265 1.46441e-05 -3.54014
321 1 22.0577 -0.688827 -3.1575 9.32305e-06 -3.54017
322 1 21.055 0.808635 -1.35 1.03766e-05 -3.54016
323 1 20.0524 2.30657 0.4575 1.14368e-05 -3.54014
324 1 19.0498 3.80514 2.265 1.25332e-05 -3.54012
325 1 22.559 1.82064 -3.1575 8.10126e-06 -3.54016
326 1 21.5563 3.3196 -1.35 8.85957e-06 -3.54015
327 1 20.5537 4.81919 0.4575 9.62498e-06 -3.54012
328 1 19.5511 6.31958 2.265 1.04253e-05 -3.54009
329 1 23.0603 4.33199 -3.1575 6.82009e-06 -3.54015
330 1 22.0577 5.83246 -1.35 7.33443e-06 -3.54013
331 1 21.055 7.33369 0.4575 7.85494e-06 -3.5401
332 1 20.0524 8.83585 2.265 8.41141e-06 -3.54006
333 1 23.5616 6.84495 -3.1575 5.565e-06 -3.54014
334 1 22.559 8.34689 -1.35 5.89671e-06 -3.54012
335 1 21.5563 9.84969 0.4575 6.2486e-06 -3.54006
336 1 20.5537 11.3535 2.265 6.48246e-06 -3.54059
337 1 24.0629 9.35922 -3.1575 4.42825e-06 -3.54006
338 1 23.0603 10.8625 -1.35 1.17834e-05 -3.54049
339 1 22.0577 12.3667 0.4575 6.6856e-05 -3.54103
340 1 24.5642 11.8744 -3.1575 3.05872e-05 -3.5409
341 1 18.5485 -11.7102 2.265 0.000378125 -3.53935
342 1 21.055 -12.1978 -1.35 0.00059196 -3.54
343 1 20.0524 -10.7044 0.4575 3.07381e-05 -3.53945
344 1 19.0498 -9.21161 2.265 1.44153e-05 -3.53997
345 1 22.559 -11.1923 -3.1575 6.56912e-05 -3.53931
346 1 21.5563 -9.69796 -1.35 9.40596e-06 -3.5398
347 1 20.5537 -8.20402 0.4575 1.16281e-05 -3.54015
348 1 19.5511 -6.71039 2.265 1.40295e-05 -3.54013
349 1 23.0603 -8.69111 -3.1575 7.74691e-06 -3.54017
350 1 22.0577 -7.1961 -1.35 9.42132e-06 -3.54015
351 1 21.055 -5.70128 0.4575 1.12213e-05 -3.54015
352 1 20.0524 -4.20655 2.265 1.30801e-05 -3.54015
353 1 23.5616 -6.18798 -3.1575 7.64844e-06 -3.54017
354 1 22.559 -4.69209 -1.35 9.00095e-06 -3.54017
355 1 21.5563 -3.19619 0.4575 1.04002e-05 -3.54017
356 1 20.5537 -1.70015 2.265 1.1812e-05 -3.54016
357 1 24.0629 -3.6829 -3.1575 7.22385e-06 -3.54018
358 1 23.0603 -2.18596 -1.35 8.26865e-06 -3.54018
359 1 22.0577 -0.688827 0.4575 9.32305e-06 -3.54017
360 1 21.055 0.808635 2.265 1.03766e-05 -3.54016
361 1 24.5642 -1.17593 -3.1575 6.56375e-06 -3.54018
362 1 23.5616 0.322173 -1.35 7.33637e-06 -3.54017
363 1 22.559 1.82064 0.4575 8.10126e-06 -3.54016
364 1 21.5563 3.3196 2.265 8.85957e-06 -3.54015
365 1 25.0655 1.33281 -3.1575 5.75478e-06 -3.54018
366 1 24.0629 2.83215 -1.35 6.29564e-06 -3.54017
367 1 23.0603 4.33199 0.4575 6.82009e-06 -3.54015
368 1 22.0577 5.83246 2.265 7.33443e-06 -3.54013
369 1 25.5668 3.84316 -3.1575 4.87588e-06 -3.54017
370 1 24.5642 5.34375 -1.35 5.22884e-06 -3.54015
371 1 23.5616 6.84495 0.4575 5.565e-06 -3.54014
372 1 22.559 8.34689 2.265 5.89671e-06 -3.54012
373 1 26.0681 6.3549 -3.1575 4.00181e-06 -3.54016
374 1 25.0655 7.85671 -1.35 4.2177e-06 -3.54014
375 1 24.0629 9.35922 0.4575 4.42825e-06 -3.54006
376 1 23.0603 10.8625 2.265 1.17834e-05 -3.54049
377 1 26.5694 8.86778 -3.1575 3.20168e-06 -3.54015
378 1 25.5668 10.3707 -1.35 3.33708e-06 -3.54015
379 1 24.5642 11.8744 0.4575 3.05872e-05 -3.5409
380 1 27.0708 11.3815 -3.1575 2.38054e-06 -3.54048
381 1 26.0681 12.8855 -1.35 0.00011032 -3.54063
382 1 21.055 -12.1978 2.265 0.00059196 -3.54
383 1 23.5616 -12.6872 -1.35 0.000785496 -3.54033
384 1 22.559 -11.1923 0.4575 6.56912e-05 -3.53931
385 1 21.5563 -9.69796 2.265 9.40596e-06 -3.5398
386 1 25.0655 -11.6821 -3.1575 0.000143087 -3.53969
387 1 24.0629 -10.1864 -1.35 6.25149e-06 -3.53957
388 1 23.0603 -8.69111 0.4575 7.74691e-06 -3.54017
389 1 22.0577 -7.1961 2.265 9.42132e-06 -3.54015
390 1 25.5668 -9.18014 -3.1575 5.23699e-06 -3.54009
391 1 24.5642 -7.68396 -1.35 6.38239e-06 -3.54017
392 1 23.5616 -6.18798 0.4575 7.64844e-06 -3.54017
393 1 22.559 -4.69209 2.265 9.00095e-06 -3.54017
394 1 26.0681 -6.67663 -3.1575 5.25369e-06 -3.54018
395 1 25.0655 -5.17976 -1.35 6.21032e-06 -3.54018
396 1 24.0629 -3.6829 0.4575 7.22385e-06 -3.54018
397 1 23.0603 -2.18596 2.265 8.26865e-06 -3.54018
398 1 26.5694 -4.17151 -3.1575 5.03759e-06 -3.54019
399 1 25.5668 -2.67379 -1.35 5.79233e-06 -3.54019
400 1 24.5642 -1.17593 0.4575 6.56375e-06 -3.54018
401 1 23.5616 0.322173 2.265 7.33637e-06 -3.54017
402 1 27.0708 -1.66482 -3.1575 4.63689e-06 -3.54019
403 1 26.0681 -0.16614 -1.35 5.19924e-06 -3.54018
404 1 25.0655 1.33281 0.4575 5.75478e-06 -3.54018
405 1 24.0629 2.83215 2.265 6.29564e-06 -3.54017
406 1 27.5721 0.843377 -3.1575 4.10979e-06 -3.54019
407 1 26.5694 2.34307 -1.35 4.50216e-06 -3.54018
408 1 25.5668 3.84316 0.4575 4.87588e-06 -3.54017
409 1 24.5642 5.34375 2.265 5.22884e-06 -3.54015
410 1 28.0734 3.35294 -3.1575 3.51604e-06 -3.54018
411 1 27.0708 4.85368 -1.35 3.76924e-06 -3.54017
412 1 26.0681 6.3549 0.4575 4.00181e-06 -3.54016
413 1 25.0655 7.85671 2.265 4.2177e-06 -3.54014
414 1 28.5747 5.8637 -3.1575 2.91296e-06 -3.54017
415 1 27.5721 7.36546 -1.35 3.06394e-06 -3.54016
416 1 26.5694 8.86778 0.4575 3.20168e-06 -3.54015
417 1 25.5668 10.3707 2.265 3.33708e-06 -3.54015
418 1 29.076 8.37547 -3.1575 2.35125e-06 -3.54017
419 1 28.0734 9.87821 -1.35 2.43962e-06 -3.54014
420 1 27.0708 11.3815 0.4575 2.38054e-06 -3.54048
421 1 26.0681 12.8855 2.265 0.00011032 -3.54063
422 1 29.5773 10.888 -3.1575 4.81683e-06 -3.54042
423 1 28.5747 12.3917 -1.35 2.73226e-05 -3.54075
424 1 23.5616 -12.6872 2.265 0.000785496 -3.54033
425 1 25.0655 -11.6821 0.4575 0.000143087 -3.53969
426 1 24.0629 -10.1864 2.265 6.25149e-06 -3.53957
427 1 27.5721 -12.1733 -3.1575 0.000233986 -3.54009
428 1 26.5694 -10.6766 -1.35 1.16936e-05 -3.53975
429 1 25.5668 -9.18014 0.4575 5.23699e-06 -3.54009
430 1 24.5642 -7.68396 2.265 6.38239e-06 -3.54017
431 1 28.0734 -9.67075 -3.1575 3.59698e-06 -3.53997
432 1 27.0708 -8.17361 -1.35 4.37711e-06 -3.54019
433 1 26.0681 -6.67663 0.4575 5.25369e-06 -3.54018
434 1 25.0655 -5.17976 2.265 6.21032e-06 -3.54018
435 1 28.5747 -7.1669 -3.1575 3.64865e-06 -3.54019
436 1 27.5721 -5.66919 -1.35 4.31746e-06 -3.54019
437 1 26.5694 -4.17151 0.4575 5.03759e-06 -3.54019
438 1 25.5668 -2.67379 2.265 5.79233e-06 -3.54019
439 1 29.076 -4.66172 -3.1575 3.54066e-06 -3.54019
440 1 28.0734 -3.16332 -1.35 4.07958e-06 -3.54019
441 1 27.0708 -1.66482 0.4575 4.63689e-06 -3.54019
442 1 26.0681 -0.16614 2.265 5.19924e-06 -3.54018
443 1 29.5773 -2.15521 -3.1575 3.29761e-06 -3.5402
444 1 28.5747 -0.656021 -1.35 3.70523e-06 -3.54019
445 1 27.5721 0.843377 0.4575 4.10979e-06 -3.54019
446 1 26.5694 2.34307 2.265 4.50216e-06 -3.54018
447 1 30.0786 0.352567 -3.1575 2.95607e-06 -3.54019
448 1 29.076 1.8526 -1.35 3.24341e-06 -3.54019
449 1 28.0734 3.35294 0.4575 3.51604e-06 -3.54018
450 1 27.0708 4.85368 2.265 3.76924e-06 -3.54017
451 1 30.5799 2.86151 -3.1575 2.55745e-06 -3.54019
452 1 29.5773 4.36241 -1.35 2.74416e-06 -3.54018
453 1 28.5747 5.8637 0.4575 2.91296e-06 -3.54017
454 1 27.5721 7.36546 2.265 3.06394e-06 -3.54016
455 1 31.0812 5.3715 -3.1575 2.14285e-06 -3.54019
456 1 30.0786 6.87326 -1.35 2.25401e-06 -3.54018
457 1 29.076 8.37547 0.4575 2.35125e-06 -3.54017
458 1 28.0734 9.87821 2.265 2.43962e-06 -3.54014
459 1 31.5825 7.88237 -3.1575 1.74868e-06 -3.54018
460 1 30.5799 9.38495 -1.35 1.81131e-06 -3.54014
461 1 29.5773 10.888 0.4575 4.81683e-06 -3.54042
462 1 28.5747 12.3917 2.265 2.73226e-05 -3.54075
463 1 32.0839 10.394 -3.1575 1.40248e-06 -3.5402
464 1 31.0812 11.8973 -1.35 1.22601e-05 -3.54067
465 1 32.5852 12.9061 -3.1575 4.77001e-05 -3.54049
466 1 27.5721 -12.1733 0.4575 0.000233986 -3.54009
467 1 26.5694 -10.6766 2.265 1.16936e-05 -3.53975
468 1 30.0786 -12.6657 -3.1575 0.00032294 -3.54031
469 1 29.076 -11.1681 -1.35 2.62363e-05 -3.53965
470 1 28.0734 -9.67075 0.4575 3.59698e-06 -3.53997
471 1 27.0708 -8.17361 2.265 4.37711e-06 -3.54019
472 1 30.5799 -10.1627 -3.1575 2.51064e-06 -3.53982
473 1 29.5773 -8.66471 -1.35 3.04387e-06 -3.5402
474 1 28.5747 -7.1669 0.4575 3.64865e-06 -3.54019
475 1 27.5721 -5.66919 2.265 4.31746e-06 -3.54019
476 1 31.0812 -7.65852 -3.1575 2.5661e-06 -3.5402
477 1 30.0786 -6.1601 -1.35 3.03276e-06 -3.5402
478 1 29.076 -4.66172 0.4575 3.54066e-06 -3.54019
479 1 28.0734 -3.16332 2.265 4.07958e-06 -3.54019
480 1 31.5825 -5.15326 -3.1575 2.51371e-06 -3.5402
481 1 30.5799 -3.65427 -1.35 2.89716e-06 -3.5402
482 1 29.5773 -2.15521 0.4575 3.29761e-06 -3.5402
483 1 28.5747 -0.656021 2.265 3.70523e-06 -3.54019
484 1 32.0839 -2.64688 -3.1575 2.36563e-06 -3.5402
485 1 31.0812 -1.14723 -1.35 2.66088e-06 -3.5402
486 1 30.0786 0.352567 0.4575 2.95607e-06 -3.54019
487 1 29.076 1.8526 2.265 3.24341e-06 -3.54019
488 1 32.5852 -0.139417 -3.1575 2.1441e-06 -3.5402
489 1 31.5825 1.36093 -1.35 2.35581e-06 -3.5402
490 1 30.5799 2.86151 0.4575 2.55745e-06 -3.54019
491 1 29.5773 4.36241 2.265 2.74416e-06 -3.54018
492 1 33.0865 2.36904 -3.1575 1.8766e-06 -3.5402
493 1 32.0839 3.87011 -1.35 2.01656e-06 -3.54019
494 1 31.0812 5.3715 0.4575 2.14285e-06 -3.54019
495 1 30.0786 6.87326 2.265 2.25401e-06 -3.54018
496 1 33.5878 4.87841 -3.1575 1.59151e-06 -3.54019
497 1 32.5852 6.3802 -1.35 1.67608e-06 -3.54019
498 1 31.5825 7.88237 0.4575 1.74868e-06 -3.54018
499 1 30.5799 9.38495 2.265 1.81131e-06 -3.54014
500 1 34.0891 7.38855 -3.1575 1.31448e-06 -3.54019
501 1 33.0865 8.89105 -1.35 1.36176e-06 -3.54018
502 1 32.0839 10.394 0.4575 1.40248e-06 -3.5402
503 1 31.0812 11.8973 2.265 1.22601e-05 -3.54067
504 1 34.5904 9.89933 -3.1575 1.06544e-06 -3.54018
505 1 33.5878 11.4025 -1.35 9.8213e-07 -3.54041
506 1 32.5852 12.9061 0.4575 4.77001e-05 -3.54049
507 1 35.0917 12.4106 -3.1575 1.2222e-05 -3.54057
508 1 30.0786 -12.6657 0.4575 0.00032294 -3.54031
509 1 29.076 -11.1681 2.265 2.62363e-05 -3.53965
510 1 31.5825 -11.6608 -1.35 5.9095e-05 -3.53988
511 1 30.5799 -10.1627 0.4575 2.51064e-06 -3.53982
512 1 29.5773 -8.66471 2.265 3.04387e-06 -3.5402
513 1 33.0865 -10.6557 -3.1575 4.81921e-06 -3.53992
514 1 32.0839 -9.15704 -1.35 2.14749e-06 -3.54015
515 1 31.0812 -7.65852 0.4575 2.5661e-06 -3.5402
516 1 30.0786 -6.1601 2.265 3.03276e-06 -3.5402
517 1 33.5878 -8.15127 -3.1575 1.82878e-06 -3.54021
518 1 32.5852 -6.65224 -1.35 2.15556e-06 -3.5402
519 1 31.5825 -5.15326 0.4575 2.51371e-06 -3.5402
520 1 30.5799 -3.65427 2.265 2.89716e-06 -3.5402
521 1 34.0891 -5.64592 -3.1575 1.80474e-06 -3.5402
522 1 33.0865 -4.14642 -1.35 2.078e-06 -3.5402
523 1 32.0839 -2.64688 0.4575 2.36563e-06 -3.5402
524 1 31.0812 -1.14723 2.265 2.66088e-06 -3.5402
525 1 34.5904 -3.13962 -3.1575 1.71385e-06 -3.5402
526 1 33.5878 -1.63958 -1.35 1.92814e-06 -3.5402
527 1 32.5852 -0.139417 0.4575 2.1441e-06 -3.5402
528 1 31.5825 1.36093 2.265 2.35581e-06 -3.5402
529 1 35.0917 -0.632408 -3.1575 1.56944e-06 -3.5402
530 1 34.0891 0.868222 -1.35 1.72618e-06 -3.5402
531 1 33.0865 2.36904 0.4575 1.8766e-06 -3.5402
532 1 32.0839 3.87011 2.265 2.01656e-06 -3.54019
533 1 35.593 1.87567 -3.1575 1.38932e-06 -3.5402
534 1 34.5904 3.37691 -1.35 1.4953e-06 -3.5402
535 1 33.5878 4.87841 0.4575 1.59151e-06 -3.54019
536 1 32.5852 6.3802 2.265 1.67608e-06 -3.54019
537 1 36.0943 4.38453 -3.1575 1.19269e-06 -3.5402
538 1 35.0917 5.88639 -1.35 1.25829e-06 -3.5402
539 1 34.0891 7.38855 0.4575 1.31448e-06 -3.54019
540 1 33.0865 8.89105 2.265 1.36176e-06 -3.54018
541 1 36.5957 6.89408 -3.1575 9.97393e-07 -3.5402
542 1 35.593 8.39654 -1.35 1.03457e-06 -3.54019
543 1 34.5904 9.89933 0.4575 1.06544e-06 -3.54018
544 1 33.5878 11.4025 2.265 9.8213e-07 -3.54041
545 1 37.097 9.40421 -3.1575 8.17755e-07 -3.54017
546 1 36.0943 10.9072 -1.35 2.1437e-06 -3.54037
547 1 35.0917 12.4106 0.4575 1.2222e-05 -3.54057
548 1 37.5983 11.9148 -3.1575 5.34713e-06 -3.54053
549 1 31.5825 -11.6608 2.265 5.9095e-05 -3.53988
550 1 34.0891 -12.1545 -1.35 0.000100634 -3.54014
551 1 33.0865 -10.6557 0.4575 4.81921e-06 -3.53992
552 1 32.0839 -9.15704 2.265 2.14749e-06 -3.54015
553 1 35.593 -11.1496 -3.1575 1.13477e-05 -3.53984
554 1 34.5904 -9.65038 -1.35 1.53694e-06 -3.54007
555 1 33.5878 -8.15127 0.4575 1.82878e-06 -3.54021
556 1 32.5852 -6.65224 2.265 2.15556e-06 -3.5402
557 1 36.0943 -8.64497 -3.1575 1.32072e-06 -3.54021
558 1 35.0917 -7.14543 -1.35 1.55113e-06 -3.5402
559 1 34.0891 -5.64592 0.4575 1.80474e-06 -3.5402
560 1 33.0865 -4.14642 2.265 2.078e-06 -3.5402
561 1 36.5957 -6.13954 -3.1575 1.31096e-06 -3.54021
562 1 35.593 -4.6396 -1.35 1.50663e-06 -3.54021
563 1 34.5904 -3.13962 0.4575 1.71385e-06 -3.5402
564 1 33.5878 -1.63958 2.265 1.92814e-06 -3.5402
565 1 37.097 -3.63329 -3.1575 1.25466e-06 -3.54021
566 1 36.0943 -2.1329 -1.35 1.41085e-06 -3.54021
567 1 35.0917 -0.632408 0.4575 1.56944e-06 -3.5402
568 1 34.0891 0.868222 2.265 1.72618e-06 -3.5402
569 1 37.5983 -1.12626 -3.1575 1.15981e-06 -3.54021
570 1 36.5957 0.374627 -1.35 1.27641e-06 -3.54021
571 1 35.593 1.87567 0.4575 1.38932e-06 -3.5402
572 1 34.5904 3.37691 2.265 1.4953e-06 -3.5402
573 1 38.0996 1.38151 -3.1575 1.03782e-06 -3.54021
574 1 37.097 2.88292 -1.35 1.1186e-06 -3.5402
575 1 36.0943 4.38453 0.4575 1.19269e-06 -3.5402
576 1 35.0917 5.88639 2.265 1.25829e-06 -3.5402
577 1 38.6009 3.88997 -3.1575 9.01526e-07 -3.5402
578 1 37.5983 5.3919 -1.35 9.52971e-07 -3.5402
579 1 36.5957 6.89408 0.4575 9.97393e-07 -3.5402
580 1 35.593 8.39654 2.265 1.03457e-06 -3.54019
581 1 39.1022 6.39903 -3.1575 7.63245e-07 -3.5402
582 1 38.0996 7.90148 -1.35 7.93183e-07 -3.5402
583 1 37.097 9.40421 0.4575 8.17755e-07 -3.54017
584 1 36.0943 10.9072 2.265 2.1437e-06 -3.54037
585 1 39.6035 8.90862 -3.1575 6.33222e-07 -3.5402
586 1 38.6009 10.4116 -1.35 6.49523e-07 -3.54021
587 1 37.5983 11.9148 0.4575 5.34713e-06 -3.54053
588 1 40.1048 11.4186 -3.1575 4.4926e-07 -3.54035
589 1 39.1022 12.922 -1.35 2.25257e-05 -3.5404
590 1 34.0891 -12.1545 2.265 0.000100634 -3.54014
591 1 36.5957 -12.649 -1.35 0.00014389 -3.54028
592 1 35.593 -11.1496 0.4575 1.13477e-05 -3.53984
593 1 34.5904 -9.65038 2.265 1.53694e-06 -3.54007
594 1 38.0996 -11.6443 -3.1575 2.63347e-05 -3.53999
595 1 37.097 -10.1446 -1.35 1.11536e-06 -3.53996
596 1 36.0943 -8.64497 0.4575 1.32072e-06 -3.54021
597 1 35.0917 -7.14543 2.265 1.55113e-06 -3.5402
598 1 38.6009 -9.13948 -3.1575 9.66245e-07 -3.54017
599 1 37.5983 -7.63949 -1.35 1.13013e-06 -3.54021