#LAMMPS data file
108 atoms
2 atom types
-125.1250000000 125.1250000000 xlo xhi
-13.0340632500 13.0340632500 ylo yhi
-3.6150000000 3.6150000000 zlo zhi
0.0 0.0 0.0 xy xz yz

Atoms # atomic

1 1 -3.5055549911 10.5605510852 -1.5783196885
2 1 -2.4762059371 11.9983131141 0.2291803074
3 1 -0.7527090922 11.0476377520 -1.5783197160
4 1 -3.5055549912 10.5605510848 2.0366803108
5 1 -2.4762059369 11.9983131144 -3.3858196920
6 1 -3.2336279142 8.0358390324 -1.5783196871
7 1 -2.0393619801 9.5495610829 0.2291802977
8 1 -0.7527090943 11.0476377532 2.0366802843
9 1 -0.7527085169 8.3612750726 -1.5783197157
10 1 -3.2336279141 8.0358390318 2.0366803130
11 1 -2.0393619806 9.5495610829 -3.3858197024
12 1 -2.4762055846 5.4812816479 -1.5783196927
13 1 -1.9035384308 7.0004333438 0.2291803061
14 1 -0.7527085168 8.3612750729 2.0366802842
15 1 -3.5055547863 4.0435195733 0.2291803105
16 1 -2.4762055843 5.4812816478 2.0366803070
17 1 -1.9035384303 7.0004333441 -3.3858196944
18 1 -2.0393620061 3.0325296631 -1.5783197028
19 1 -0.7527084949 4.5306065041 0.2291802846
20 1 -3.5055547859 4.0435195732 -3.3858196901
21 1 -3.2336282107 1.5188075323 0.2291803123
22 1 -2.0393620063 3.0325296624 2.0366802972
23 1 -0.7527084950 4.5306065041 -3.3858197160
24 1 -1.9035389633 0.4834017881 -1.5783196942
25 1 -0.7527088974 1.8442439326 0.2291802846
26 1 -3.2336282107 1.5188075325 -3.3858196871
27 1 -3.5055558218 -2.4735120506 -1.5783196899
28 1 -2.4762064728 -1.0357498656 0.2291803070
29 1 -1.9035389608 0.4834017883 2.0366803059
30 1 -0.7527088973 1.8442439326 -3.3858197165
31 1 -0.7527099271 -1.9864249109 -1.5783197180
32 1 -3.5055558221 -2.4735120508 2.0366803097
33 1 -2.4762064724 -1.0357498656 -3.3858196932
34 1 -3.2336295378 -4.9982242140 -1.5783196881
35 1 -2.0393634698 -3.4845019400 0.2291802959
36 1 -0.7527099265 -1.9864249109 2.0366802823
37 1 -0.7527104996 -4.6727875725 -1.5783197168
38 1 -3.2336295382 -4.9982242148 2.0366803118
39 1 -2.0393634697 -3.4845019399 -3.3858197039
40 1 -2.4762068248 -7.5527816466 -1.5783196935
41 1 -1.9035403652 -6.0336297619 0.2291803048
42 1 -0.7527104999 -4.6727875724 2.0366802824
43 1 -3.5055560222 -8.9905437876 0.2291803100
44 1 -2.4762068241 -7.5527816471 2.0366803063
45 1 -1.9035403669 -6.0336297621 -3.3858196953
46 1 -2.0393634400 -10.0015337667 -1.5783197025
47 1 -0.7527105205 -8.5034569085 0.2291802834
48 1 -3.5055560220 -8.9905437874 -3.3858196891
49 1 -3.2336292380 -11.5152559634 0.2291803125
50 1 -2.0393634405 -10.0015337669 2.0366802971
51 1 -0.7527105208 -8.5034569090 -3.3858197170
52 1 -1.9035398346 -12.5506614563 -1.5783196937
53 1 -0.7527101197 -11.1898196794 0.2291802847
54 1 -3.2336292380 -11.5152559636 -3.3858196867
55 1 -1.9035398336 -12.5506614555 2.0366803060
56 1 -0.7527101193 -11.1898196793 -3.3858197161
57 2 -2.0596706376 -10.1446157758 2.0404283591
58 2 -0.3077884919 13.0009277750 2.0160556271
59 2 -96.1295906121 -7.4459850035 2.0406702201
60 2 -95.1348860142 -5.9467076109 -3.3818297799
61 2 -95.6160114330 -9.9550343145 -1.5743297799
62 2 -98.1024643905 -10.4606175190 2.0406702201
63 2 -97.0923199906 -8.9523988617 -3.3818297799
64 2 -96.6223562464 -11.4621398833 0.2331702201
65 2 -95.6160114330 -9.9550343145 2.0406702201
66 2 -94.6117542075 -8.4470221987 -3.3818297799
67 2 -95.1349141707 -12.4637538238 -1.5743297799
68 2 -94.1201860425 -10.9575405327 -3.3818297799
69 2 -92.6201389531 -11.9597157250 2.0406702201
70 2 -91.6132786211 -10.4553069530 -3.3818297799
71 2 -90.1107976811 -11.4576786893 2.0406702201
72 2 -89.1066099860 -9.9535691808 -3.3818297799
73 2 -82.0883816444 -12.4596953777 2.0406702201
74 2 -81.0859732903 -10.9557750536 -3.3818297799
75 2 -79.5819925111 -11.9583525543 2.0406702201
76 2 -78.5795543855 -10.4544222556 -3.3818297799
77 2 -77.0755941587 -11.4570051276 2.0406702201
78 2 -73.0651920519 -11.9582349371 -3.3818297799
79 2 -69.0546736595 -12.4594468519 2.0406702202
80 2 -68.0523788237 -10.9555589397 -3.3818297798
81 2 -66.5482136183 -11.9581064475 2.0406702202
82 2 -65.5459919586 -10.4542349928 -3.3818297798
83 2 -64.0417542092 -11.4567750075 2.0406702202
84 2 -57.5242465860 -11.4566121049 -3.3818297797
85 2 -56.0195368888 -12.4590139006 2.0406702204
86 2 -55.0176169196 -10.9552976245 -3.3818297795
87 2 -53.5126905704 -11.9576554779 2.0406702206
88 2 -52.5109519768 -10.4540006398 -3.3818297792
89 2 -51.0057531818 -11.4563038681 2.0406702210
90 2 -44.4853997915 -11.4556339809 -3.3818297757
91 2 -42.9793836563 -12.4575173880 2.0406702247
92 2 -41.9774512075 -10.9541747236 -3.3818297717
93 2 -40.4708561243 -11.9558783410 2.0406702284
94 2 -39.4691367060 -10.4527000011 -3.3818297638
95 2 -37.9618073648 -11.4541766219 2.0406702333
96 2 -29.9265767355 -12.4518579696 2.0406705775
97 2 -28.9203251261 -10.9486386727 -3.3818299139
98 2 -27.4131185896 -11.9488521947 2.0406712892
99 2 -26.4058598075 -10.4457902982 -3.3818305426
100 2 -24.8979339055 -11.4454082683 2.0406736957
101 2 -16.8646308588 -12.4365808219 2.0405515256
102 2 -15.8386805669 -10.9293678368 -3.3817448068
103 2 -14.3500452215 -11.9308986135 2.0400298935
104 2 -13.3161442504 -10.4226850010 -3.3815876260
105 2 -11.8402901349 -11.4265976369 2.0372014687
106 2 -7.9193240813 -11.9547459666 -3.3815063900
107 2 -3.2490006963 -12.5517434120 1.7027658670
108 2 -3.2682146195 -11.4105099576 -3.3826842052
