#LAMMPS data file
3190 atoms
2 atom types
-125.2250000000 125.2250000000 xlo xhi
-13.0340632500 13.0340632500 ylo yhi
-3.6150000000 3.6150000000 zlo zhi
0.0 0.0 0.0 xy xz yz

Atoms # atomic

1 1 -28.3277649044 11.0460530320 -1.5725827388
2 1 -26.6042684011 11.9967285511 0.2349172721
3 1 -25.5749188558 10.5589665390 -1.5725827068
4 1 -28.3277649220 11.0460530431 2.0424172569
5 1 -26.6042683936 11.9967285449 -3.3800827161
6 1 -28.3277643988 8.3596903635 -1.5725826983
7 1 -27.0411113289 9.5479763958 0.2349172756
8 1 -25.5749188677 10.5589665526 2.0424172844
9 1 -25.8468450205 8.0342544232 -1.5725827143
10 1 -28.3277644058 8.3596903744 2.0424172823
11 1 -27.0411113225 9.5479763925 -3.3800827468
12 1 -26.6042673312 5.4796971442 -1.5725827084
13 1 -27.1769343617 6.9988486968 0.2349172888
14 1 -25.8468450283 8.0342544228 2.0424172972
15 1 -28.3277645334 4.5290217260 0.2349172892
16 1 -26.6042673350 5.4796971357 2.0424172952
17 1 -27.1769343225 6.9988486978 -3.3800827056
18 1 -27.0411114251 3.0309453309 -1.5725827243
19 1 -25.5749182457 4.0419352056 0.2349173080
20 1 -28.3277645256 4.5290217240 -3.3800827279
21 1 -28.3277648506 1.8426591639 0.2349172904
22 1 -27.0411114393 3.0309453276 2.0424172808
23 1 -25.5749182476 4.0419352129 -3.3800826959
24 1 -27.1769349241 0.4818178729 -1.5725827031
25 1 -25.8468454788 1.5172233005 0.2349173006
26 1 -28.3277648463 1.8426591688 -3.3800826965
27 1 -28.3277656922 -1.9880097409 -1.5725827361
28 1 -26.6042691776 -1.0373340134 0.2349172727
29 1 -27.1769348899 0.4818178601 2.0424172993
30 1 -25.8468454710 1.5172232901 -3.3800827015
31 1 -25.5749201216 -2.4750959497 -1.5725827233
32 1 -28.3277656836 -1.9880097112 2.0424172663
33 1 -26.6042691802 -1.0373340187 -3.3800827086
34 1 -28.3277661749 -4.6743723932 -1.5725827314
35 1 -27.0411129083 -3.4860861450 0.2349172460
36 1 -25.5749200912 -2.4750959548 2.0424172690
37 1 -25.8468471627 -4.9998081683 -1.5725827370
38 1 -28.3277661646 -4.6743723723 2.0424172689
39 1 -27.0411129326 -3.4860861444 -3.3800827443
40 1 -26.6042701590 -7.5543659124 -1.5725827622
41 1 -27.1769363475 -6.0352139292 0.2349172499
42 1 -25.8468471695 -4.9998081742 2.0424172649
43 1 -28.3277660807 -8.5050416728 0.2349172389
44 1 -26.6042701512 -7.5543658965 2.0424172377
45 1 -27.1769363736 -6.0352139294 -3.3800827423
46 1 -27.0411128348 -10.0031183112 -1.5725827581
47 1 -25.5749206667 -8.9921279021 0.2349172639
48 1 -28.3277660753 -8.5050416805 -3.3800827699
49 1 -28.3277657677 -11.1914044439 0.2349172497
50 1 -27.0411128642 -10.0031183148 2.0424172399
51 1 -25.5749206696 -8.9921279029 -3.3800827562
52 1 -27.1769357496 -12.5522462602 -1.5725827024
53 1 -25.8468466793 -11.5168402807 0.2349172805
54 1 -28.3277657650 -11.1914044486 -3.3800827194
55 1 -27.1769357427 -12.5522462578 2.0424172902
56 1 -25.8468466804 -11.5168402833 -3.3800827242
57 1 6.6387314187 13.0320890526 -3.3800828636
58 1 1.6674934703 -12.0337881869 0.2349172541
59 1 0.5917591584 -10.5063829980 2.0424172741
60 1 4.1453096131 -12.5352146491 -3.3800828058
61 1 3.1141885933 -11.0218547052 -1.5725827731
62 1 2.0688009847 -9.5135116933 0.2349172507
63 1 1.0680965707 -8.0297044187 2.0424172610
64 1 4.6048218417 -10.0225196376 -3.3800828214
65 1 3.6043324322 -8.5259136615 -1.5725827683
66 1 2.6557862818 -7.0322277619 0.2349172577
67 1 1.6674927921 -5.5167561598 2.0424172697
68 1 5.1380520721 -7.5257553540 -3.3800828054
69 1 4.1453087581 -6.0181825576 -1.5725827861
70 1 3.1141885233 -4.5048227678 0.2349172627
71 1 2.0688016024 -2.9964798652 2.0424172663
72 1 5.6257364974 -5.0111269923 -3.3800828106
73 1 4.6048226244 -3.5054878440 -1.5725827758
74 1 3.6043338359 -2.0088820394 0.2349172478
75 1 2.6557880953 -0.5151962916 2.0424172693
76 1 6.1213602399 -2.5084785445 -3.3800828193
77 1 5.1380542863 -1.0087239657 -1.5725827722
78 1 4.1453111717 0.4988487007 0.2349172393
79 1 3.1141909199 2.0122084365 2.0424172600
80 1 6.6387333388 -0.0019740363 -3.3800828626
81 1 5.6257393587 1.5059040553 -1.5725827974
82 1 4.6048251668 3.0115431971 0.2349172139
83 1 3.6043358966 4.5081490480 2.0424172562
84 1 7.1232757360 2.5073300557 -3.3800828772
85 1 6.1213626755 4.0085523912 -1.5725828182
86 1 5.1380559309 5.5083070581 0.2349172299
87 1 4.1453120014 7.0158798649 2.0424172282
88 1 7.6363960410 5.0100506159 -3.3800828484
89 1 6.6387343405 6.5150570153 -1.5725828242
90 1 5.6257394351 8.0229352872 0.2349171859
91 1 4.6048244137 9.5285746163 2.0424172086
92 1 8.1334431592 7.5196358053 -3.3800829027
93 1 7.1232748400 9.0243614237 -1.5725828665
94 1 6.1213610023 10.5255839644 0.2349171846
95 1 5.1380537713 12.0253389044 2.0424171946
96 1 8.6319076896 10.0247951513 -3.3800829063
97 1 7.6363933342 11.5270824535 -1.5725828655
98 1 6.6387313925 13.0320890538 0.2349171292
99 1 9.1397223724 12.5311457380 -3.3800829589
100 1 4.1453096025 -12.5352146420 0.2349172022
101 1 3.1141886035 -11.0218547243 2.0424172244
102 1 5.6257365563 -11.5281590271 -1.5725828367
103 1 4.6048218231 -10.0225196251 0.2349171841
104 1 3.6043324243 -8.5259136699 2.0424172272
105 1 7.1232716762 -10.5267326956 -3.3800828910
106 1 6.1213584944 -9.0255101361 -1.5725828440
107 1 5.1380520769 -7.5257553412 0.2349172135
108 1 4.1453087516 -6.0181825539 2.0424172413
109 1 7.6363912641 -8.0240116229 -3.3800829175
110 1 6.6387303945 -6.5190051948 -1.5725828687
111 1 5.6257365042 -5.0111270105 0.2349171923
112 1 4.6048225926 -3.5054878433 2.0424172143
113 1 8.1334395918 -5.5144262540 -3.3800829285
114 1 7.1232726806 -4.0097008373 -1.5725828911
115 1 6.1213602474 -2.5084785594 0.2349171796
116 1 5.1380542848 -1.0087239772 2.0424172218
117 1 8.6319068165 -3.0092671991 -3.3800829019
118 1 7.6363940273 -1.5069802464 -1.5725828703
119 1 6.6387333209 -0.0019740315 0.2349171835
120 1 5.6257393594 1.5059040406 2.0424172075
121 1 9.1397247573 -0.5029172939 -3.3800829210
122 1 8.1334430424 1.0026046730 -1.5725828932
123 1 7.1232757286 2.5073300532 0.2349171413
124 1 6.1213626725 4.0085523622 2.0424172033
125 1 9.6344412859 2.0048188125 -3.3800829242
126 1 8.6319097542 3.5077635410 -1.5725828964
127 1 7.6363960313 5.0100506093 0.2349171386
128 1 6.6387343396 6.5150569882 2.0424171707
129 1 10.1400814180 4.5098629555 -3.3800829421
130 1 9.1397259880 6.0141135990 -1.5725829151
131 1 8.1334431662 7.5196357925 0.2349171121
132 1 7.1232748453 9.0243613928 2.0424171329
133 1 10.6400926729 7.0175387869 -3.3800829976
134 1 9.6344402132 8.5218501172 -1.5725829521
135 1 8.6319077002 10.0247951374 0.2349170812
136 1 7.6363933420 11.5270824407 2.0424171173
137 1 11.1400310059 9.5236033076 -3.3800829978
138 1 10.1400781152 11.0268949170 -1.5725829870
139 1 9.1397223509 12.5311457408 0.2349170472
140 1 11.6439612838 12.0300044575 -3.3800830392
141 1 5.6257365732 -11.5281590190 2.0424171649
142 1 8.1334396304 -12.0314584012 -1.5725829269
143 1 7.1232716802 -10.5267327104 0.2349171051
144 1 6.1213584881 -9.0255101558 2.0424171408
145 1 9.6344363311 -11.0292438103 -3.3800829745
146 1 8.6319046234 -9.5262988300 -1.5725829613
147 1 7.6363912774 -8.0240116094 0.2349170975
148 1 6.6387303821 -6.5190051812 2.0424171496
149 1 10.1400755545 -8.5241989696 -3.3800830132
150 1 9.1397211289 -7.0199483590 -1.5725829675
151 1 8.1334395781 -5.5144262517 0.2349170723
152 1 7.1232726620 -4.0097008331 2.0424171260
153 1 10.6400882947 -6.0165229319 -3.3800830330
154 1 9.6344375865 -4.5122119076 -1.5725829597
155 1 8.6319067972 -3.0092672088 0.2349170613
156 1 7.6363940406 -1.5069802911 2.0424171262
157 1 11.1400299344 -3.5104588114 -3.3800829861
158 1 10.1400789487 -2.0071676622 -1.5725829623
159 1 9.1397247491 -0.5029173030 0.2349170851
160 1 8.1334430691 1.0026046585 2.0424170828
161 1 11.6439642275 -1.0040585192 -3.3800829797
162 1 10.6400925523 0.5005078240 -1.5725829664
163 1 9.6344413014 2.0048188021 0.2349170767
164 1 8.6319097463 3.5077635540 2.0424171006
165 1 12.1427058785 1.5029857332 -3.3800829845
166 1 11.1400335377 3.0065716635 -1.5725829715
167 1 10.1400814118 4.5098629490 0.2349170566
168 1 9.1397259914 6.0141135784 2.0424170837
169 1 12.6455807863 4.0089401149 -3.3800830224
170 1 11.6439657276 5.5129720991 -1.5725830050
171 1 10.6400926653 7.0175387858 0.2349170273
172 1 9.6344402191 8.5218501177 2.0424170552
173 1 13.1465105501 6.5159004842 -3.3800830656
174 1 12.1427044926 8.0200169285 -1.5725830420
175 1 11.1400310188 9.5236033019 0.2349169808
176 1 10.1400780903 11.0268948918 2.0424170078
177 1 13.6471763258 9.0222812918 -3.3800830889
178 1 12.6455767302 10.5259721348 -1.5725830488
179 1 11.6439612744 12.0300044541 0.2349169848
180 1 14.1495284539 11.5287422563 -3.3800830924
181 1 13.1465051579 13.0329332280 -1.5725830806
182 1 8.1334396411 -12.0314584161 2.0424170747
183 1 10.6400883141 -12.5335552046 -1.5725830209
184 1 9.6344363453 -11.0292438286 0.2349170297
185 1 8.6319046014 -9.5262988277 2.0424170399
186 1 12.1426997227 -11.5310766934 -3.3800830609
187 1 11.1400272008 -10.0274903993 -1.5725830163
188 1 10.1400755390 -8.5241989815 0.2349169981
189 1 9.1397211069 -7.0199483459 2.0424170375
190 1 12.6455735501 -9.0251214449 -3.3800830818
191 1 11.6439597360 -7.5210894180 -1.5725830360
192 1 10.6400882802 -6.0165229258 0.2349169894
193 1 9.6344375634 -4.5122118776 2.0424170369
194 1 13.1465051144 -6.5181607810 -3.3800831021
195 1 12.1427012715 -5.0140446842 -1.5725830482
196 1 11.1400299140 -3.5104588062 0.2349169780
197 1 10.1400789721 -2.0071677066 2.0424170386
198 1 13.6471749779 -4.0117804203 -3.3800830614
199 1 12.6455777461 -2.5080902047 -1.5725830230
200 1 11.6439642177 -1.0040585253 0.2349170065
201 1 10.6400925608 0.5005078203 2.0424170360
202 1 14.1495320644 -1.5053204949 -3.3800830707
203 1 13.1465104586 -0.0011302558 -1.5725830363
204 1 12.1427058783 1.5029857352 0.2349169837
205 1 11.1400335489 3.0065716660 2.0424170375
206 1 14.6498432224 1.0014277153 -3.3800830724
207 1 13.6471795091 2.5052497321 -1.5725830454
208 1 12.6455807846 4.0089401132 0.2349169785
209 1 11.6439657487 5.5129720856 2.0424169968
210 1 15.1517045491 3.5077383583 -3.3800830972
211 1 14.1495339568 5.0117098178 -1.5725830669
212 1 13.1465105410 6.5159004819 0.2349169310
213 1 12.1427045097 8.0200169435 2.0424169526
214 1 15.6529057542 6.0144320638 -3.3800831193
215 1 14.6498414718 7.5184587426 -1.5725830960
216 1 13.6471763399 9.0222812857 0.2349169180
217 1 12.6455767067 10.5259721532 2.0424169408
218 1 16.1539144683 8.5209200921 -3.3800831391
219 1 15.1516995303 10.0247703650 -1.5725831268
220 1 14.1495284628 11.5287422449 0.2349168851
221 1 13.1465051681 13.0329332300 2.0424169095
222 1 16.6556276477 11.0274195456 -3.3800831396
223 1 15.6528990923 12.5314650096 -1.5725831444
224 1 10.6400883293 -12.5335551956 2.0424169852
225 1 12.1426997150 -11.5310767026 0.2349169345
226 1 11.1400272080 -10.0274903923 2.0424169704
227 1 14.6498355573 -12.0326346853 -3.3800831087
228 1 13.6471716491 -10.5288121189 -1.5725831005
229 1 12.6455735501 -9.0251214368 0.2349169067
230 1 11.6439597581 -7.5210894298 2.0424169503
231 1 15.1516955340 -9.5263229389 -3.3800831425
232 1 14.1495264878 -8.0223513398 -1.5725831192
233 1 13.1465051184 -6.5181607768 0.2349169101
234 1 12.1427012769 -5.0140446720 2.0424169472
235 1 15.6528989161 -7.0196287822 -3.3800831360
236 1 14.6498374201 -5.5156024699 -1.5725831055
237 1 13.6471749827 -4.0117804242 0.2349169033
238 1 12.6455777524 -2.5080902278 2.0424169586
239 1 16.1539126774 -4.5131412275 -3.3800831107
240 1 15.1517007185 -3.0092916631 -1.5725831097
241 1 14.1495320708 -1.5053205028 0.2349169297
242 1 13.1465104195 -0.0011302720 2.0424169513
243 1 16.6556320415 -2.0066430441 -3.3800831220
244 1 15.6529056296 -0.5025984138 -1.5725831160
245 1 14.6498432179 1.0014277228 0.2349169274
246 1 13.6471794951 2.5052497001 2.0424169455
247 1 17.1565496209 0.4999809088 -3.3800831347
248 1 16.1539184085 2.0038886513 -1.5725831119
249 1 15.1517045624 3.5077383633 0.2349169000
250 1 14.1495339700 5.0117098130 2.0424169285
251 1 17.6580432181 3.0064305183 -3.3800831146
252 1 16.6556344810 4.5103869643 -1.5725831302
253 1 15.6529057643 6.0144320734 0.2349168780
254 1 14.6498414606 7.5184587359 2.0424169013
255 1 18.1593174838 5.5130253936 -3.3800831456
256 1 17.1565474799 7.0170117260 -1.5725831358
257 1 16.1539144698 8.5209201117 0.2349168767
258 1 15.1516995077 10.0247703737 2.0424168800
259 1 18.6604819938 8.0195486431 -3.3800831554
260 1 17.6580369386 9.5234625713 -1.5725831536
261 1 16.6556276414 11.0274195479 0.2349168393
262 1 15.6528990837 12.5314649897 2.0424168443
263 1 19.1619374758 10.5260688662 -3.3800831563
264 1 18.1593091268 12.0300586391 -1.5725831730
265 1 19.6630815512 13.0326433606 -3.3800831570
266 1 14.6498355531 -12.0326346941 0.2349168719
267 1 13.6471716306 -10.5288121223 2.0424168796
268 1 17.1565401192 -12.5340813490 -3.3800831728
269 1 16.1539086295 -11.0301729985 -1.5725831436
270 1 15.1516955428 -9.5263229345 0.2349168607
271 1 14.1495265040 -8.0223513573 2.0424168844
272 1 17.6580319292 -10.0276303507 -3.3800831621
273 1 16.6556251031 -8.5236737686 -1.5725831602
274 1 15.6528989258 -7.0196287883 0.2349168610
275 1 14.6498374406 -5.5156024590 2.0424168945
276 1 18.1593087907 -7.5210348797 -3.3800831602
277 1 17.1565422948 -6.0170489850 -1.5725831588
278 1 16.1539126891 -4.5131412224 0.2349168605
279 1 15.1517007310 -3.0092916644 2.0424168860
280 1 18.6604796092 -5.0145121561 -3.3800831498
281 1 17.6580383135 -3.5105991304 -1.5725831362
282 1 16.6556320443 -2.0066430435 0.2349168610
283 1 15.6529056146 -0.5025984003 2.0424168773
284 1 19.1619428508 -2.5079934966 -3.3800831610
285 1 18.1593171981 -1.0040047960 -1.5725831357
286 1 17.1565496168 0.4999809180 0.2349168665
287 1 16.1539184151 2.0038886722 2.0424168979
288 1 19.6630933357 -0.0014211157 -3.3800831380
289 1 18.6604868576 1.5025172639 -1.5725831427
290 1 17.6580432161 3.0064305208 0.2349168680
291 1 16.6556345072 4.5103869729 2.0424168751
292 1 20.1644551413 2.5050823355 -3.3800831539
293 1 19.1619460642 4.0090360684 -1.5725831433
294 1 18.1593174921 5.5130253986 0.2349168677
295 1 17.1565474812 7.0170117368 2.0424168570
296 1 20.6657452704 5.0116407794 -3.3800831625
297 1 19.6630907659 6.5156094690 -1.5725831458
298 1 18.6604819883 8.0195486549 0.2349168500
299 1 17.6580369255 9.5234625610 2.0424168523
300 1 21.1669783310 7.5181751053 -3.3800831518
301 1 20.1644473270 9.0221144384 -1.5725831657
302 1 19.1619374674 10.5260688636 0.2349168292
303 1 18.1593091297 12.0300586165 2.0424168283
304 1 21.6683300775 10.0247056871 -3.3800831766
305 1 20.6657347766 11.5286743683 -1.5725831846
306 1 19.6630815535 13.0326433374 0.2349168118
307 1 22.1695616781 12.5312594459 -3.3800831723
308 1 17.1565401272 -12.5340813431 0.2349168327
309 1 16.1539086185 -11.0301729971 2.0424168363
310 1 18.6604747041 -11.5315439989 -1.5725831799
311 1 17.6580319464 -10.0276303417 0.2349168340
312 1 16.6556251245 -8.5236737562 2.0424168397
313 1 20.1644410229 -10.5289778993 -3.3800831870
314 1 19.1619342495 -9.0250239957 -1.5725831774
315 1 18.1593088037 -7.5210348843 0.2349168272
316 1 17.1565423219 -6.0170489736 2.0424168482
317 1 20.6657342286 -8.0224186758 -3.3800831905
318 1 19.6630841181 -6.5184505387 -1.5725831703
319 1 18.6604796053 -5.0145121659 0.2349168357
320 1 17.6580383223 -3.5105991517 2.0424168702
321 1 21.1669750832 -5.5158849828 -3.3800831896
322 1 20.1644488500 -4.0119467818 -1.5725831621
323 1 19.1619428449 -2.5079935088 0.2349168587
324 1 18.1593171644 -1.0040048056 2.0424168580
325 1 21.6683365845 -3.0093563439 -3.3800831689
326 1 20.6657447345 -1.5053890077 -1.5725831513
327 1 19.6630933354 -0.0014211115 0.2349168586
328 1 18.6604868479 1.5025172623 2.0424168659
329 1 22.1695763269 -0.5028052291 -3.3800831560
330 1 21.1669842803 1.0011438720 -1.5725831658
331 1 20.1644551357 2.5050823280 0.2349168535
332 1 19.1619460532 4.0090360571 2.0424168634
333 1 22.6708917159 2.0037188609 -3.3800831619
334 1 21.6683407861 3.5076727138 -1.5725831813
335 1 20.6657452581 5.0116407746 0.2349168542
336 1 19.6630907991 6.5156094737 2.0424168520
337 1 23.1721830644 4.5102639571 -3.3800831933
338 1 22.1695733428 6.0142250462 -1.5725831626
339 1 21.1669783276 7.5181751021 0.2349168289
340 1 20.1644473394 9.0221144464 2.0424168430
341 1 23.6734453193 7.0168015617 -3.3800831853
342 1 22.6708820685 8.5207510038 -1.5725831642
343 1 21.6683300575 10.0247056895 0.2349168092
344 1 20.6657347569 11.5286743680 2.0424168350
345 1 24.1747549197 9.5233371460 -3.3800831919
346 1 23.1721698754 11.0272979763 -1.5725831839
347 1 22.1695616742 12.5312594433 0.2349168122
348 1 24.6760188837 12.0298826664 -3.3800832186
349 1 18.6604746956 -11.5315440204 2.0424168214
350 1 21.1669691178 -12.0329169499 -1.5725831902
351 1 20.1644410369 -10.5289779117 0.2349168153
352 1 19.1619342398 -9.0250240092 2.0424168301
353 1 22.6708740180 -11.0303406710 -3.3800831937
354 1 21.6683258865 -9.5263865539 -1.5725831903
355 1 20.6657342389 -8.0224186620 0.2349168201
356 1 19.6630841134 -6.5184505450 2.0424168386
357 1 23.1721689917 -8.5237945459 -3.3800831989
358 1 22.1695646998 -7.0198340917 -1.5725831882
359 1 21.1669750784 -5.5158849891 0.2349168423
360 1 20.1644488570 -4.0119467766 2.0424168358
361 1 23.6734408594 -6.0172576532 -3.3800831973
362 1 22.6708836577 -4.5133095938 -1.5725831778
363 1 21.6683365784 -3.0093563434 0.2349168244
364 1 20.6657446982 -1.5053889738 2.0424168449
365 1 24.1747627447 -3.5107244771 -3.3800831807
366 1 23.1721821377 -2.0067652998 -1.5725831741
367 1 22.1695763254 -0.5028052211 0.2349168258
368 1 21.1669842768 1.0011438584 2.0424168389
369 1 24.6760370752 -1.0041822022 -3.3800832092
370 1 23.6734525583 0.4997704918 -1.5725831736
371 1 22.6708917091 2.0037188648 0.2349168177
372 1 21.6683407780 3.5076726936 2.0424168253
373 1 25.1773366317 1.5023495847 -3.3800832121
374 1 24.1747682520 3.0063038593 -1.5725831839
375 1 23.1721830528 4.5102639529 0.2349168194
376 1 22.1695733481 6.0142250615 2.0424168338
377 1 25.6786263539 4.0088897311 -3.3800832239
378 1 24.6760336141 5.5128476253 -1.5725831998
379 1 23.6734453189 7.0168015597 0.2349168217
380 1 22.6708820803 8.5207510122 2.0424168235
381 1 26.1799003395 6.5154282264 -3.3800832145
382 1 25.1773246834 8.0193817600 -1.5725832170
383 1 24.1747549096 9.5233371391 0.2349168018
384 1 23.1721698570 11.0272979658 2.0424168227
385 1 26.6811921842 9.0219661901 -3.3800832400
386 1 25.6786098273 10.5259242461 -1.5725832323
387 1 24.6760188602 12.0298826583 0.2349168108
388 1 27.1824673249 11.5285086352 -3.3800832614
389 1 26.1798854461 13.0324641098 -1.5725832185
390 1 21.1669690962 -12.0329169584 2.0424168100
391 1 23.6734335966 -12.5342898321 -1.5725831861
392 1 22.6708740236 -11.0303406737 0.2349168236
393 1 21.6683258924 -9.5263865709 2.0424168016
394 1 25.1773143914 -11.5317091521 -3.3800831982
395 1 24.1747494142 -10.0277544472 -1.5725831977
396 1 23.1721690076 -8.5237945341 0.2349168190
397 1 22.1695646930 -7.0198340812 2.0424168288
398 1 25.6786083923 -9.0251676244 -3.3800832150
399 1 24.6760223927 -7.5212104182 -1.5725832041
400 1 23.6734408531 -6.0172576490 0.2349168165
401 1 22.6708836967 -4.5133095896 2.0424168286
402 1 26.1798942407 -6.5186299320 -3.3800832224
403 1 25.1773263064 -5.0146780599 -1.5725832047
404 1 24.1747627343 -3.5107244754 0.2349167915
405 1 23.1721821031 -2.0067653232 2.0424168181
406 1 26.6812015629 -4.0120948809 -3.3800832528
407 1 25.6786248523 -2.5081388646 -1.5725832117
408 1 24.6760370713 -1.0041822050 0.2349168206
409 1 23.6734525440 0.4997704843 2.0424168168
410 1 27.1824898720 -1.5055564622 -3.3800832402
411 1 26.1799091377 -0.0016026009 -1.5725832204
412 1 25.1773366308 1.5023495710 0.2349168023
413 1 24.1747682461 3.0063038528 2.0424168137
414 1 27.6837845420 1.0009779818 -3.3800832664
415 1 26.6812088137 2.5049326235 -1.5725832301
416 1 25.6786263506 4.0088897162 0.2349167857
417 1 24.6760335991 5.5128476488 2.0424167944
418 1 28.1850726298 3.5075161083 -3.3800832749
419 1 27.1824859119 5.0114728622 -1.5725832571
420 1 26.1799003198 6.5154282302 0.2349167510
421 1 25.1773247203 8.0193817755 2.0424167835
422 1 28.6863506297 6.0140548159 -3.3800832950
423 1 27.6837697969 7.5180102266 -1.5725832783
424 1 26.6811921891 9.0219662032 0.2349167370
425 1 25.6786098162 10.5259242434 2.0424167720
426 1 29.1876341416 8.5205940283 -3.3800833108
427 1 28.1850519613 10.0245513044 -1.5725832890
428 1 27.1824673104 11.5285086397 0.2349167468
429 1 26.1798854168 13.0324641273 2.0424167626
430 1 29.6889122066 11.0271355483 -3.3800833218
431 1 28.6863317443 12.5310917454 -1.5725832986
432 1 23.6734335827 -12.5342898283 2.0424168201
433 1 25.1773143812 -11.5317091444 0.2349167824
434 1 24.1747494570 -10.0277544540 2.0424168027
435 1 27.6837565420 -12.0330797856 -3.3800832746
436 1 26.6811850005 -10.5291246067 -1.5725832268
437 1 25.6786084113 -9.0251676189 0.2349167792
438 1 24.6760223739 -7.5212104207 2.0424168034
439 1 28.1850497101 -9.5265398399 -3.3800832963
440 1 27.1824713103 -8.0225839473 -1.5725832598
441 1 26.1798942404 -6.5186299395 0.2349168053
442 1 25.1773263256 -5.0146780503 2.0424167915
443 1 28.6863423564 -7.0200020824 -3.3800833170
444 1 27.6837712214 -5.5160487278 -1.5725832738
445 1 26.6812015538 -4.0120948753 0.2349167765
446 1 25.6786248436 -2.5081388674 2.0424167787
447 1 29.1876452958 -4.5134664549 -3.3800833121
448 1 28.1850703187 -3.0095116957 -1.5725832815
449 1 27.1824898654 -1.5055564605 0.2349167400
450 1 26.1799091569 -0.0016026162 2.0424167825
451 1 29.6889401280 -2.0069299876 -3.3800833358
452 1 28.6863613338 -0.5029757776 -1.5725832995
453 1 27.6837845472 1.0009779710 0.2349167329
454 1 26.6812088107 2.5049326293 2.0424167640
455 1 30.1902338329 0.4996050814 -3.3800833598
456 1 29.1876548413 2.0035599603 -1.5725832940
457 1 28.1850726332 3.5075161133 0.2349167389
458 1 27.1824858760 5.0114728751 2.0424167329
459 1 30.6915206871 3.0061422929 -3.3800833596
460 1 29.6889355697 4.5100986842 -1.5725833275
461 1 28.6863506127 6.0140548075 0.2349167073
462 1 27.6837697894 7.5180102321 2.0424167188
463 1 31.1927991379 5.5126810487 -3.3800833965
464 1 30.1902155875 7.0166374423 -1.5725833438
465 1 29.1876341354 8.5205940344 0.2349167115
466 1 28.1850519536 10.0245513002 2.0424167164
467 1 31.6940777205 8.0192210938 -3.3800834259
468 1 30.6914948244 9.5231783685 -1.5725833700
469 1 29.6889121894 11.0271355480 0.2349166545
470 1 28.6863317153 12.5310917345 2.0424166999
471 1 32.1953552698 10.5257627142 -3.3800834295
472 1 31.1927752584 12.0297193751 -1.5725833978
473 1 32.6966400007 13.0323034393 -3.3800834777
474 1 27.6837565563 -12.0330797724 0.2349167162
475 1 26.6811849862 -10.5291246120 2.0424167688
476 1 30.1901986543 -12.5344512705 -3.3800833725
477 1 29.1876247159 -11.0304957516 -1.5725833148
478 1 28.1850497224 -9.5265398264 0.2349167241
479 1 27.1824713122 -8.0225839736 2.0424167516
480 1 30.6914915222 -10.0279117300 -3.3800833940
481 1 29.6889167084 -8.5239564508 -1.5725833558
482 1 28.6863423531 -7.0200020874 0.2349167071
483 1 27.6837712529 -5.5160487120 2.0424167209
484 1 31.1927881123 -7.5213741408 -3.3800834082
485 1 30.1902167011 -6.0174203492 -1.5725833684
486 1 29.1876452990 -4.5134664511 0.2349166738
487 1 28.1850703478 -3.0095116797 2.0424167027
488 1 31.6940910319 -5.0148385863 -3.3800834357
489 1 30.6915173160 -3.5108844715 -1.5725833780
490 1 29.6889401313 -2.0069299875 0.2349166604
491 1 28.6863613334 -0.5029757858 2.0424167136
492 1 32.1953898915 -2.5083033497 -3.3800834311
493 1 31.1928121808 -1.0043492008 -1.5725833917
494 1 30.1902338316 0.4996050641 0.2349166573
495 1 29.1876548406 2.0035599603 2.0424167016
496 1 32.6966841533 -0.0017684951 -3.3800834691
497 1 31.6941035123 1.5021864562 -1.5725834132
498 1 30.6915206787 3.0061422916 0.2349166261
499 1 29.6889355489 4.5100987045 2.0424166841
500 1 33.1979700484 2.5047681962 -3.3800834728
501 1 32.1953846321 4.0087245222 -1.5725834347
502 1 31.1927991295 5.5126810506 0.2349166177
503 1 30.1902155963 7.0166374452 2.0424166468
504 1 33.6992472047 5.0113070275 -3.3800835053
505 1 32.6966615657 6.5152640030 -1.5725834625
506 1 31.6940777195 8.0192210997 0.2349165896
507 1 30.6914948198 9.5231784032 2.0424166337
508 1 34.2005217578 7.5178477781 -3.3800835135
509 1 33.1979376797 9.0218053611 -1.5725834726
510 1 32.1953552706 10.5257627072 0.2349165463
511 1 31.1927752391 12.0297193789 2.0424166024
512 1 34.7017971154 10.0243899798 -3.3800835583
513 1 33.6992170383 11.5283470806 -1.5725835177
514 1 32.6966400137 13.0323034363 0.2349165199
515 1 35.2030802350 12.5309316184 -3.3800835868
516 1 30.1901986679 -12.5344512704 0.2349166486
517 1 29.1876246990 -11.0304957555 2.0424166802
518 1 31.6940654476 -11.5318672875 -1.5725834298
519 1 30.6914915284 -10.0279117178 0.2349166084
520 1 29.6889167417 -8.5239564588 2.0424166484
521 1 33.1979329919 -10.5292834095 -3.3800835028
522 1 32.1953604289 -9.0253284617 -1.5725834564
523 1 31.1927881157 -7.5213741378 0.2349165881
524 1 30.1902167145 -6.0174203342 2.0424166302
525 1 33.6992326548 -8.0227459660 -3.3800835138
526 1 32.6966622306 -6.5187922683 -1.5725834792
527 1 31.6940910262 -5.0148385998 0.2349165736
528 1 30.6915173389 -3.5108844756 2.0424166242
529 1 34.2005376465 -5.5162108124 -3.3800835172
530 1 33.1979652530 -4.0122572660 -1.5725834715
531 1 32.1953898800 -2.5083033435 0.2349165665
532 1 31.1928122043 -1.0043492097 2.0424166190
533 1 34.7018400097 -3.0096766086 -3.3800835166
534 1 33.6992631080 -1.5057227750 -1.5725834955
535 1 32.6966841537 -0.0017684943 0.2349165559
536 1 31.6941035012 1.5021864763 2.0424165742
537 1 35.2031356107 -0.5031424182 -3.3800835585
538 1 34.2005538930 1.0008124807 -1.5725835164
539 1 33.1979700415 2.5047681941 0.2349165204
540 1 32.1953845953 4.0087245375 2.0424165664
541 1 35.7044206786 2.0033937470 -3.3800835801
542 1 34.7018340296 3.5073501872 -1.5725835442
543 1 33.6992472013 5.0113070200 0.2349164904
544 1 32.6966615931 6.5152640000 2.0424165250
545 1 36.2056954915 4.5099326447 -3.3800835979
546 1 35.2031077197 6.0138901582 -1.5725835542
547 1 34.2005217627 7.5178477706 0.2349164692
548 1 33.1979376659 9.0218053649 2.0424165232
549 1 36.7069657928 7.0164741596 -3.3800836309
550 1 35.7043801355 8.5204322510 -1.5725835877
551 1 34.7017971241 10.0243899827 0.2349164361
552 1 33.6992170003 11.5283470956 2.0424164704
553 1 37.2082378688 9.5230173009 -3.3800836456
554 1 36.2056573628 11.0269748441 -1.5725836269
555 1 35.2030802505 12.5309316297 0.2349164155
556 1 37.7095190612 12.0295599590 -3.3800836911
557 1 31.6940654474 -11.5318672857 2.0424165478
558 1 34.2005058799 -12.0332388529 -1.5725835258
559 1 33.1979330072 -10.5292833926 0.2349165110
560 1 32.1953604351 -9.0253284616 2.0424165487
561 1 35.7043736480 -11.0306548596 -3.3800835926
562 1 34.7018030068 -9.5267000881 -1.5725835625
563 1 33.6992326616 -8.0227459680 0.2349164896
564 1 32.6966622333 -6.5187922732 2.0424165410
565 1 36.2056763205 -8.5241175398 -3.3800836045
566 1 35.2031076314 -7.0201641321 -1.5725835635
567 1 34.2005376309 -5.5162108272 0.2349164794
568 1 33.1979652832 -4.0122572644 2.0424165202
569 1 36.7069847069 -6.0175829889 -3.3800836256
570 1 35.7044139341 -4.5136300062 -1.5725835719
571 1 34.7018400147 -3.0096766061 0.2349164496
572 1 33.6992631374 -1.5057227858 2.0424164955
573 1 37.2082909719 -3.5110499014 -3.3800836323
574 1 36.2057148641 -2.0070965225 -1.5725835988
575 1 35.2031356225 -0.5031424189 0.2349164398
576 1 34.2005538844 1.0008124915 2.0424164894
577 1 37.7095884984 -1.0045166416 -3.3800836443
578 1 36.7070058036 0.4994380730 -1.5725836217
579 1 35.7044206550 2.0033937497 0.2349164400
580 1 34.7018339973 3.5073501902 2.0424164651
581 1 38.2108727193 1.5020189645 -3.3800836358
582 1 37.2082842561 3.0059754838 -1.5725836027
583 1 36.2056954868 4.5099326568 0.2349164165
584 1 35.2031077107 6.0138901659 2.0424164400
585 1 38.7121443301 4.0085579998 -3.3800836656
586 1 37.7095540219 5.5125159758 -1.5725836594
587 1 36.7069658074 7.0164741615 0.2349163702
588 1 35.7043801209 8.5204322416 2.0424164081
589 1 39.2134096664 6.5151003814 -3.3800837027
590 1 38.2108219699 8.0190590476 -1.5725836677
591 1 37.2082378768 9.5230173018 0.2349163563
592 1 36.2056573268 11.0269748423 2.0424163716
593 1 39.7146773603 9.0216447072 -3.3800837259
594 1 38.7120961969 10.5256028157 -1.5725837085
595 1 37.7095190689 12.0295599638 0.2349163177
596 1 40.2159562062 11.5281886391 -3.3800837744
597 1 39.2133832018 13.0321451243 -1.5725837494
598 1 34.2005058824 -12.0332388518 2.0424164585
599 1 36.7069452611 -12.5346103012 -1.5725836484
600 1 35.7043736694 -11.0306548445 0.2349164100
601 1 34.7018030189 -9.5267000960 2.0424164557
602 1 38.2108130427 -11.5320259567 -3.3800836816
603 1 37.2082444881 -10.0280713811 -1.5725836493
604 1 36.2056763272 -8.5241175428 0.2349163999
605 1 35.2031076491 -7.0201641298 2.0424164465
606 1 38.7121191133 -9.0254887034 -3.3800836967
607 1 37.7095528307 -7.5215357550 -1.5725836751
608 1 36.7069846926 -6.0175829946 0.2349163646
609 1 35.7044139536 -4.5136300058 2.0424164268
610 1 39.2134321644 -6.5189548577 -3.3800837467
611 1 38.2108633991 -5.0150026034 -1.5725836732
612 1 37.2082909697 -3.5110499004 0.2349163875
613 1 36.2057148380 -2.0070965057 2.0424164134
614 1 39.7147431320 -4.0124230478 -3.3800837237
615 1 38.7121678550 -2.5084703243 -1.5725836937
616 1 37.7095884974 -1.0045166463 0.2349163314
617 1 36.7070058121 0.4994380585 2.0424163871
618 1 40.2160431986 -1.5058910242 -3.3800837500
619 1 39.2134595035 -0.0019366118 -1.5725837027
620 1 38.2108727145 1.5020189579 0.2349163467
621 1 37.2082842650 3.0059754780 2.0424163853
622 1 40.7173265296 1.0006437991 -3.3800837401
623 1 39.7147356644 2.5046004957 -1.5725837003
624 1 38.7121443346 4.0085580060 0.2349163247
625 1 37.7095540204 5.5125159859 2.0424163520
626 1 41.2185940479 3.5071829898 -3.3800837639
627 1 40.2160006284 5.0111415740 -1.5725837316
628 1 39.2134096766 6.5151003831 0.2349162972
629 1 38.2108219747 8.0190590408 2.0424163365
630 1 41.7198532611 6.0137264655 -3.3800837940
631 1 40.7172630318 7.5176858339 -1.5725837648
632 1 39.7146773736 9.0216447118 0.2349162812
633 1 38.7120961682 10.5256028159 2.0424163021
634 1 42.2211153726 8.5202723541 -3.3800838467