ITEM: TIMESTEP
0
ITEM: NUMBER OF ATOMS
3182
ITEM: BOX BOUNDS xy xz yz mm pp pp
-1.0009999999999999e+02 1.0009999999999999e+02 0.0000000000000000e+00
-1.3034063250000001e+01 1.3034063250000001e+01 0.0000000000000000e+00
-3.6150000000000002e+00 3.6150000000000002e+00 0.0000000000000000e+00
ITEM: ATOMS id type x y z c_csym c_energy
1 1 0.50131 8.98031 -3.1575 7.19473 -1.0679
2 1 1.00262 11.5011 -3.1575 8.28749 -3.2874
3 1 0.50131 -4.46128 -3.1575 11.9493 -3.24893
4 1 1.00262 -1.95085 -3.1575 6.20292 -3.34346
5 1 1.50393 0.572688 -3.1575 6.36118 -3.4447
6 1 0.50131 2.03105 -1.35 0.00135386 -3.53981
7 1 2.00524 3.11712 -3.1575 0.00526219 -3.53556
8 1 1.00262 4.58926 -1.35 6.33214 -3.4016
9 1 2.50655 5.71637 -3.1575 0.0356252 -3.50979
10 1 1.50393 7.29627 -1.35 4.23252 -3.43988
11 1 0.50131 8.98031 0.4575 8.73177 -1.0044
12 1 3.00786 8.36017 -3.1575 0.0192244 -3.5388
13 1 2.00524 9.94133 -1.35 2.25878 -3.51725
14 1 1.00262 11.5011 0.4575 8.28749 -3.2874
15 1 3.50917 10.9383 -3.1575 0.00255016 -3.52631
16 1 2.50655 12.4816 -1.35 6.44717 -3.43415
17 1 1.50393 -12.057 -3.1575 6.61745 -3.38472
18 1 0.501311 -10.5399 -1.35 8.65664 -1.01052
19 1 2.00524 -9.58497 -3.1575 2.34892 -3.5124
20 1 1.00262 -8.07837 -1.35 10.6997 -3.31634
21 1 2.50655 -7.16953 -3.1575 5.15913 -3.4208
22 1 1.50393 -5.77681 -1.35 5.61391 -3.29995
23 1 0.50131 -4.46128 0.4575 11.9493 -3.24893
24 1 3.00786 -4.78777 -3.1575 0.0187028 -3.48825
25 1 2.00524 -3.37958 -1.35 0.0156483 -3.51023
26 1 1.00262 -1.95085 0.4575 6.20292 -3.34346
27 1 3.50917 -2.33071 -3.1575 0.00404712 -3.52863
28 1 2.50655 -0.883307 -1.35 0.00186572 -3.53139
29 1 1.50393 0.572688 0.4575 6.36118 -3.4447
30 1 0.50131 2.03105 2.265 6.22315 -3.45507
31 1 4.01048 0.174128 -3.1575 0.001792 -3.53547
32 1 3.00786 1.64338 -1.35 0.00208088 -3.53867
33 1 2.00524 3.11712 0.4575 0.00526219 -3.5041
34 1 1.00262 4.58926 2.265 6.33214 -3.40188
35 1 4.51179 2.70898 -3.1575 0.00212015 -3.53738
36 1 3.50917 4.20273 -1.35 0.00535172 -3.52893
37 1 2.50655 5.71637 0.4575 6.32465 -3.42001
38 1 1.50393 7.29627 2.265 4.23252 -3.43988
39 1 5.0131 5.27202 -3.1575 0.00210689 -3.53432
40 1 4.01048 6.79969 -1.35 0.00502348 -3.52619
41 1 3.00786 8.36017 0.4575 0.0192244 -3.5207
42 1 2.00524 9.94133 2.265 2.25878 -3.51725
43 1 5.51441 7.84788 -3.1575 0.00172833 -3.53522
44 1 4.51179 9.38925 -1.35 0.00332961 -3.53475
45 1 3.50917 10.9383 0.4575 0.00255016 -3.52631
46 1 2.50655 12.4816 2.265 6.44717 -3.43415
47 1 6.01572 10.409 -3.1575 0.000955986 -3.53804
48 1 5.0131 11.943 -1.35 0.00173701 -3.54159
49 1 6.51703 12.9499 -3.1575 0.0029774 -3.54134
50 1 1.50393 -12.057 0.4575 6.61745 -3.38472
51 1 0.501311 -10.5399 2.265 8.65664 -1.01105
52 1 4.01048 -12.5869 -3.1575 0.00890936 -3.53246
53 1 3.00786 -11.0864 -1.35 0.002858 -3.52337
54 1 2.00524 -9.58497 0.4575 2.34892 -3.5124
55 1 1.00262 -8.07837 2.265 8.29363 -3.25285
56 1 4.51179 -10.1165 -3.1575 0.00116714 -3.53583
57 1 3.50917 -8.63318 -1.35 0.00456104 -3.52307
58 1 2.50655 -7.16953 0.4575 5.15913 -3.4208
59 1 1.50393 -5.77681 2.265 10.3397 -3.17465
60 1 5.0131 -7.66604 -3.1575 0.00153097 -3.5371
61 1 4.01048 -6.21166 -1.35 0.00562596 -3.52469
62 1 3.00786 -4.78777 0.4575 0.0187028 -3.48825
63 1 2.00524 -3.37958 2.265 6.10321 -3.38129
64 1 5.51441 -5.21989 -3.1575 0.0022565 -3.53632
65 1 4.51179 -3.77246 -1.35 0.00436089 -3.53504
66 1 3.50917 -2.33071 0.4575 0.00404712 -3.52863
67 1 2.50655 -0.883307 2.265 6.32752 -3.42782
68 1 6.01572 -2.75033 -3.1575 0.00174909 -3.53822
69 1 5.0131 -1.28956 -1.35 0.00196658 -3.5384
70 1 4.01048 0.174128 0.4575 0.001792 -3.53547
71 1 3.00786 1.64338 2.265 0.00208088 -3.51616
72 1 6.51703 -0.251858 -3.1575 0.00114139 -3.53922
73 1 5.51441 1.22536 -1.35 0.00139436 -3.53879
74 1 4.51179 2.70898 0.4575 0.00212015 -3.53738
75 1 3.50917 4.20273 2.265 0.00535172 -3.52893
76 1 7.01834 2.27018 -3.1575 0.000848034 -3.5389
77 1 6.01572 3.76508 -1.35 0.00121876 -3.53748
78 1 5.0131 5.27202 0.4575 0.00210689 -3.53489
79 1 4.01048 6.79969 2.265 0.00502348 -3.52619
80 1 7.51965 4.80975 -3.1575 0.000549631 -3.53813
81 1 6.51703 6.32178 -1.35 0.000805218 -3.53664
82 1 5.51441 7.84788 0.4575 0.00172833 -3.53522
83 1 4.51179 9.38925 2.265 0.00332961 -3.53475
84 1 8.02096 7.35724 -3.1575 0.000360071 -3.53814
85 1 7.01834 8.87909 -1.35 0.000638927 -3.53771
86 1 6.01572 10.409 0.4575 0.000955986 -3.53804
87 1 5.0131 11.943 2.265 0.00173701 -3.54159
88 1 8.52227 9.90154 -3.1575 0.000267026 -3.5388
89 1 7.51965 11.4244 -1.35 0.000453769 -3.54027
90 1 6.51703 12.9499 0.4575 0.0029774 -3.54134
91 1 9.02358 12.4372 -3.1575 0.000887491 -3.54188
92 1 4.01048 -12.5869 0.4575 0.00890936 -3.53246
93 1 3.00786 -11.0864 2.265 0.002858 -3.52337
94 1 5.51441 -11.6073 -1.35 0.00356405 -3.53803
95 1 4.51179 -10.1165 0.4575 0.00116714 -3.53583
96 1 3.50917 -8.63318 2.265 0.00456104 -3.52307
97 1 7.01834 -10.6242 -3.1575 0.000752857 -3.53792
98 1 6.01572 -9.13988 -1.35 0.000594978 -3.53796
99 1 5.0131 -7.66604 0.4575 0.00153097 -3.5371
100 1 4.01048 -6.21166 2.265 0.00562596 -3.52531
101 1 7.51965 -8.15358 -3.1575 0.000310991 -3.53887
102 1 6.51703 -6.68053 -1.35 0.000779586 -3.5379
103 1 5.51441 -5.21989 0.4575 0.0022565 -3.53632
104 1 4.51179 -3.77246 2.265 0.00436089 -3.53562
105 1 8.02097 -5.68229 -3.1575 0.00049803 -3.53893
106 1 7.01834 -4.21324 -1.35 0.00107799 -3.53846
107 1 6.01572 -2.75033 0.4575 0.00174909 -3.53822
108 1 5.0131 -1.28956 2.265 0.00196658 -3.53896
109 1 8.52228 -3.19984 -3.1575 0.000592063 -3.5394
110 1 7.51965 -1.72582 -1.35 0.000897839 -3.53932
111 1 6.51703 -0.251858 0.4575 0.00114139 -3.53922
112 1 5.51441 1.22536 2.265 0.00139436 -3.53879
113 1 9.02359 -0.701148 -3.1575 0.000499723 -3.53971
114 1 8.02096 0.782533 -1.35 0.000655541 -3.53949
115 1 7.01834 2.27018 0.4575 0.000848034 -3.5389
116 1 6.01572 3.76508 2.265 0.00121876 -3.53748
117 1 9.5249 1.81304 -3.1575 0.000353806 -3.53961
118 1 8.52227 3.30796 -1.35 0.000434498 -3.53909
119 1 7.51965 4.80975 0.4575 0.000549631 -3.53813
120 1 6.51703 6.32178 2.265 0.000805218 -3.53664
121 1 10.0262 4.33899 -3.1575 0.000209743 -3.53935
122 1 9.02359 5.8443 -1.35 0.0002498 -3.53879
123 1 8.02096 7.35724 0.4575 0.000360071 -3.53814
124 1 7.01834 8.87909 2.265 0.000638927 -3.53771
125 1 10.5275 6.87114 -3.1575 0.000121977 -3.53928
126 1 9.5249 8.38346 -1.35 0.00017245 -3.539
127 1 8.52227 9.90154 0.4575 0.000267026 -3.5388
128 1 7.51965 11.4244 2.265 0.000453769 -3.54027
129 1 11.0288 9.40371 -3.1575 8.7386e-05 -3.53933
130 1 10.0262 10.9189 -1.35 8.74426e-05 -3.54026
131 1 9.02358 12.4372 0.4575 0.000887491 -3.54188
132 1 11.5301 11.933 -3.1575 0.000318542 -3.54154
133 1 5.51441 -11.6073 2.265 0.00356405 -3.53803
134 1 8.02097 -12.1144 -1.35 0.00430586 -3.53952
135 1 7.01834 -10.6242 0.4575 0.000752857 -3.53792
136 1 6.01572 -9.13988 2.265 0.000594978 -3.53796
137 1 9.5249 -11.1234 -3.1575 0.000706704 -3.538
138 1 8.52228 -9.63554 -1.35 0.000146241 -3.53856
139 1 7.51965 -8.15358 0.4575 0.000310991 -3.53887
140 1 6.51703 -6.68053 2.265 0.000779586 -3.5379
141 1 10.0262 -8.64114 -3.1575 9.99558e-05 -3.53966
142 1 9.02359 -7.15856 -1.35 0.000214716 -3.53934
143 1 8.02097 -5.68229 0.4575 0.00049803 -3.53893
144 1 7.01834 -4.21324 2.265 0.00107799 -3.53846
145 1 10.5275 -6.15717 -3.1575 0.000161184 -3.5397
146 1 9.5249 -4.67652 -1.35 0.00032529 -3.53954
147 1 8.52228 -3.19984 0.4575 0.000592063 -3.5394
148 1 7.51965 -1.72582 2.265 0.000897839 -3.53932
149 1 11.0288 -3.66658 -3.1575 0.000212229 -3.53986
150 1 10.0262 -2.18351 -1.35 0.000345639 -3.5398
151 1 9.02359 -0.701148 0.4575 0.000499723 -3.53971
152 1 8.02096 0.782533 2.265 0.000655541 -3.53949
153 1 11.5301 -1.16635 -3.1575 0.000204241 -3.53996
154 1 10.5275 0.322315 -1.35 0.000278992 -3.53986
155 1 9.5249 1.81304 0.4575 0.000353806 -3.53961
156 1 8.52227 3.30796 2.265 0.000434498 -3.53909
157 1 12.0314 1.3438 -3.1575 0.00015316 -3.53992
158 1 11.0288 2.83944 -1.35 0.000182799 -3.53971
159 1 10.0262 4.33899 0.4575 0.000209743 -3.53935
160 1 9.02359 5.8443 2.265 0.0002498 -3.53879
161 1 12.5328 3.86196 -3.1575 9.38686e-05 -3.53981
162 1 11.5301 5.36429 -1.35 0.000103174 -3.53958
163 1 10.5275 6.87114 0.4575 0.000121977 -3.53928
164 1 9.5249 8.38346 2.265 0.00017245 -3.539
165 1 13.0341 6.38503 -3.1575 5.34201e-05 -3.53976
166 1 12.0314 7.89242 -1.35 6.36775e-05 -3.53959
167 1 11.0288 9.40371 0.4575 8.7386e-05 -3.53933
168 1 10.0262 10.9189 2.265 8.74426e-05 -3.54026
169 1 13.5354 8.9097 -3.1575 3.51287e-05 -3.53979
170 1 12.5328 10.42 -1.35 4.6698e-05 -3.53977
171 1 11.5301 11.933 0.4575 0.000318542 -3.54154
172 1 14.0367 11.4335 -3.1575 3.93543e-05 -3.54064
173 1 13.0341 12.9448 -1.35 0.000743868 -3.54112
174 1 8.02097 -12.1144 2.265 0.00430586 -3.53952
175 1 10.5275 -12.6152 -1.35 0.00468995 -3.54028
176 1 9.5249 -11.1234 0.4575 0.000706704 -3.538
177 1 8.52228 -9.63554 2.265 0.000146241 -3.53856
178 1 12.0314 -11.6197 -3.1575 0.00100736 -3.53903
179 1 11.0288 -10.1286 -1.35 5.15137e-05 -3.53846
180 1 10.0262 -8.64114 0.4575 9.99558e-05 -3.53966
181 1 9.02359 -7.15856 2.265 0.000214716 -3.53934
182 1 12.5328 -9.13025 -3.1575 4.06972e-05 -3.53974
183 1 11.5301 -7.6419 -1.35 7.9058e-05 -3.53983
184 1 10.5275 -6.15717 0.4575 0.000161184 -3.5397
185 1 9.5249 -4.67652 2.265 0.00032529 -3.53954
186 1 13.0341 -6.63904 -3.1575 6.38449e-05 -3.53998
187 1 12.0314 -5.15159 -1.35 0.000118916 -3.53992
188 1 11.0288 -3.66658 0.4575 0.000212229 -3.53986
189 1 10.0262 -2.18351 2.265 0.000345639 -3.5398
190 1 13.5354 -4.14348 -3.1575 8.47541e-05 -3.54004
191 1 12.5328 -2.65458 -1.35 0.000136782 -3.54001
192 1 11.5301 -1.16635 0.4575 0.000204241 -3.53996
193 1 10.5275 0.322315 2.265 0.000278992 -3.53986
194 1 14.0367 -1.64181 -3.1575 8.66308e-05 -3.54008
195 1 13.0341 -0.149524 -1.35 0.000119716 -3.54003
196 1 12.0314 1.3438 0.4575 0.00015316 -3.53992
197 1 11.0288 2.83944 2.265 0.000182799 -3.53971
198 1 14.538 0.866322 -3.1575 6.95288e-05 -3.54006
199 1 13.5354 2.36301 -1.35 8.33697e-05 -3.53997
200 1 12.5328 3.86196 0.4575 9.38686e-05 -3.53981
201 1 11.5301 5.36429 2.265 0.000103174 -3.53958
202 1 15.0393 3.38 -3.1575 4.57274e-05 -3.54001
203 1 14.0367 4.88112 -1.35 4.93586e-05 -3.5399
204 1 13.0341 6.38503 0.4575 5.34201e-05 -3.53976
205 1 12.0314 7.89242 2.265 6.36775e-05 -3.53959
206 1 15.5406 5.89749 -3.1575 2.70052e-05 -3.53998
207 1 14.538 7.40226 -1.35 2.92718e-05 -3.53989
208 1 13.5354 8.9097 0.4575 3.51287e-05 -3.53979
209 1 12.5328 10.42 2.265 4.6698e-05 -3.53977
210 1 16.0419 8.41681 -3.1575 1.68919e-05 -3.53999
211 1 15.0393 9.92407 -1.35 2.03004e-05 -3.5399
212 1 14.0367 11.4335 0.4575 3.93543e-05 -3.54064
213 1 13.0341 12.9448 2.265 0.000743868 -3.54112
214 1 16.5432 10.9363 -3.1575 1.41734e-05 -3.54051
215 1 15.5406 12.4449 -1.35 0.000168492 -3.54129
216 1 10.5275 -12.6152 2.265 0.00468995 -3.54028
217 1 12.0314 -11.6197 0.4575 0.00100736 -3.53903
218 1 11.0288 -10.1286 2.265 5.15137e-05 -3.53846
219 1 14.538 -12.1152 -3.1575 0.00119455 -3.53996
220 1 13.5354 -10.6215 -1.35 0.000106645 -3.53918
221 1 12.5328 -9.13025 0.4575 4.06972e-05 -3.53974
222 1 11.5301 -7.6419 2.265 7.9058e-05 -3.53983
223 1 15.0393 -9.62107 -3.1575 1.9116e-05 -3.53962
224 1 14.0367 -8.12895 -1.35 3.43683e-05 -3.54005
225 1 13.0341 -6.63904 0.4575 6.38449e-05 -3.53998
226 1 12.0314 -5.15159 2.265 0.000118916 -3.53992
227 1 15.5406 -7.12542 -3.1575 2.87695e-05 -3.54009
228 1 14.538 -5.63368 -1.35 4.98999e-05 -3.54007
229 1 13.5354 -4.14348 0.4575 8.47541e-05 -3.54004
230 1 12.5328 -2.65458 2.265 0.000136782 -3.54001
231 1 16.0419 -4.62673 -3.1575 3.74401e-05 -3.54013
232 1 15.0393 -3.13401 -1.35 5.8472e-05 -3.54011
233 1 14.0367 -1.64181 0.4575 8.66308e-05 -3.54008
234 1 13.0341 -0.149524 2.265 0.000119716 -3.54003
235 1 16.5432 -2.12397 -3.1575 3.92931e-05 -3.54014
236 1 15.5406 -0.629084 -1.35 5.40065e-05 -3.54012
237 1 14.538 0.866322 0.4575 6.95288e-05 -3.54006
238 1 13.5354 2.36301 2.265 8.33697e-05 -3.53997
239 1 17.0446 0.38316 -3.1575 3.3347e-05 -3.54013
240 1 16.0419 1.88092 -1.35 4.03251e-05 -3.54009
241 1 15.0393 3.38 0.4575 4.57274e-05 -3.54001
242 1 14.0367 4.88112 2.265 4.93586e-05 -3.5399
243 1 17.5459 2.8942 -3.1575 2.35859e-05 -3.54011
244 1 16.5432 4.39496 -1.35 2.56275e-05 -3.54005
245 1 15.5406 5.89749 0.4575 2.70052e-05 -3.53998
246 1 14.538 7.40226 2.265 2.92718e-05 -3.53989
247 1 18.0472 5.40816 -3.1575 1.48052e-05 -3.54008
248 1 17.0445 6.91158 -1.35 1.54527e-05 -3.54003
249 1 16.0419 8.41681 0.4575 1.68919e-05 -3.53999
250 1 15.0393 9.92407 2.265 2.03004e-05 -3.5399
251 1 18.5485 7.92385 -3.1575 9.23734e-06 -3.54008
252 1 17.5459 9.42928 -1.35 1.01926e-05 -3.53997
253 1 16.5432 10.9363 0.4575 1.41734e-05 -3.54051
254 1 15.5406 12.4449 2.265 0.000168492 -3.54129
255 1 19.0498 10.4402 -3.1575 6.38857e-06 -3.54011
256 1 18.0472 11.9469 -1.35 6.71757e-05 -3.54105
257 1 19.5511 12.9563 -3.1575 0.000183177 -3.54074
258 1 14.538 -12.1152 0.4575 0.00119455 -3.53996
259 1 13.5354 -10.6215 2.265 0.000106645 -3.53918
260 1 17.0446 -12.6107 -3.1575 0.00131243 -3.54038
261 1 16.0419 -11.1151 -1.35 0.000148686 -3.53908
262 1 15.0393 -9.62107 0.4575 1.9116e-05 -3.53962
263 1 14.0367 -8.12895 2.265 3.43683e-05 -3.54005
264 1 17.5459 -10.1135 -3.1575 9.87652e-06 -3.53941
265 1 16.5432 -8.61872 -1.35 1.6666e-05 -3.54014
266 1 15.5406 -7.12542 0.4575 2.87695e-05 -3.54009
267 1 14.538 -5.63368 2.265 4.98999e-05 -3.54007
268 1 18.0472 -7.61493 -3.1575 1.42213e-05 -3.54015
269 1 17.0446 -6.12033 -1.35 2.32167e-05 -3.54014
270 1 16.0419 -4.62673 0.4575 3.74401e-05 -3.54013
271 1 15.0393 -3.13401 2.265 5.8472e-05 -3.54011
272 1 18.5485 -5.1142 -3.1575 1.80198e-05 -3.54017
273 1 17.5459 -3.61889 -1.35 2.71144e-05 -3.54016
274 1 16.5432 -2.12397 0.4575 3.92931e-05 -3.54014
275 1 15.5406 -0.629084 2.265 5.40065e-05 -3.54012
276 1 19.0498 -2.61062 -3.1575 1.91127e-05 -3.54017
277 1 18.0472 -1.11386 -1.35 2.59186e-05 -3.54016
278 1 17.0446 0.38316 0.4575 3.3347e-05 -3.54013
279 1 16.0419 1.88092 2.265 4.03251e-05 -3.54009
280 1 19.5511 -0.104001 -3.1575 1.6916e-05 -3.54017
281 1 18.5485 1.3947 -1.35 2.05562e-05 -3.54014
282 1 17.5459 2.8942 0.4575 2.35859e-05 -3.54011
283 1 16.5432 4.39496 2.265 2.56275e-05 -3.54005
284 1 20.0524 2.40544 -3.1575 1.27462e-05 -3.54015
285 1 19.0498 3.90623 -1.35 1.40291e-05 -3.54012
286 1 18.0472 5.40816 0.4575 1.48052e-05 -3.54008
287 1 17.0445 6.91158 2.265 1.54527e-05 -3.54003
288 1 20.5537 4.91712 -3.1575 8.53508e-06 -3.54014
289 1 19.5511 6.41986 -1.35 8.85154e-06 -3.54011
290 1 18.5485 7.92385 0.4575 9.23734e-06 -3.54008
291 1 17.5459 9.42928 2.265 1.01926e-05 -3.53997
292 1 21.055 7.43031 -3.1575 5.47932e-06 -3.54013
293 1 20.0524 8.93465 -1.35 5.74611e-06 -3.54011
294 1 19.0498 10.4402 0.4575 6.38857e-06 -3.54011
295 1 18.0472 11.9469 2.265 6.71757e-05 -3.54105
296 1 21.5563 9.94427 -3.1575 3.70211e-06 -3.54012
297 1 20.5537 11.4498 -1.35 6.00652e-06 -3.54052
298 1 19.5511 12.9563 0.4575 0.000183177 -3.54074
299 1 22.0577 12.4584 -3.1575 4.09024e-05 -3.54083
300 1 17.0446 -12.6107 0.4575 0.00131243 -3.54038
301 1 16.0419 -11.1151 2.265 0.000148686 -3.53908
302 1 18.5485 -11.6094 -1.35 0.000251304 -3.5396
303 1 17.5459 -10.1135 0.4575 9.87652e-06 -3.53941
304 1 16.5432 -8.61872 2.265 1.6666e-05 -3.54014
305 1 20.0524 -10.6072 -3.1575 2.22966e-05 -3.53969
306 1 19.0498 -9.11056 -1.35 8.74683e-06 -3.54006
307 1 18.0472 -7.61493 0.4575 1.42213e-05 -3.54015
308 1 17.0446 -6.12033 2.265 2.32167e-05 -3.54014
309 1 20.5537 -8.10669 -3.1575 7.54979e-06 -3.54019
310 1 19.5511 -6.6101 -1.35 1.1713e-05 -3.54017
311 1 18.5485 -5.1142 0.4575 1.80198e-05 -3.54017
312 1 17.5459 -3.61889 2.265 2.71144e-05 -3.54016
313 1 21.055 -5.60457 -3.1575 9.31773e-06 -3.54019
314 1 20.0524 -4.10745 -1.35 1.35338e-05 -3.54018
315 1 19.0498 -2.61062 0.4575 1.91127e-05 -3.54017
316 1 18.0472 -1.11386 2.265 2.59186e-05 -3.54016
317 1 21.5563 -3.10041 -3.1575 9.91346e-06 -3.54019
318 1 20.5537 -1.60227 -1.35 1.32239e-05 -3.54018
319 1 19.5511 -0.104001 0.4575 1.6916e-05 -3.54017
320 1 18.5485 1.3947 2.265 2.05562e-05 -3.54014
321 1 22.0577 -0.594039 -3.1575 9.04929e-06 -3.54019
322 1 21.055 0.905449 -1.35 1.10048e-05 -3.54017
323 1 20.0524 2.40544 0.4575 1.27462e-05 -3.54015
324 1 19.0498 3.90623 2.265 1.40291e-05 -3.54012
325 1 22.559 1.91441 -3.1575 7.18108e-06 -3.54018
326 1 21.5563 3.41539 -1.35 7.99879e-06 -3.54016
327 1 20.5537 4.91712 0.4575 8.53508e-06 -3.54014
328 1 19.5511 6.41986 2.265 8.85154e-06 -3.54011
329 1 23.0603 4.42459 -3.1575 5.1024e-06 -3.54017
330 1 22.0577 5.92702 -1.35 5.32808e-06 -3.54015
331 1 21.055 7.43031 0.4575 5.47932e-06 -3.54013
332 1 20.0524 8.93465 2.265 5.74611e-06 -3.54011
333 1 23.5616 6.93604 -3.1575 3.41674e-06 -3.54016
334 1 22.559 8.43972 -1.35 3.50618e-06 -3.54015
335 1 21.5563 9.94427 0.4575 3.70211e-06 -3.54012
336 1 20.5537 11.4498 2.265 6.00652e-06 -3.54052
337 1 24.0629 9.44825 -3.1575 2.31305e-06 -3.54012
338 1 23.0603 10.9529 -1.35 4.54621e-06 -3.54044
339 1 22.0577 12.4584 0.4575 4.09024e-05 -3.54083
340 1 24.5642 11.9608 -3.1575 1.74178e-05 -3.5407
341 1 18.5485 -11.6094 2.265 0.000251304 -3.5396
342 1 21.055 -12.1046 -1.35 0.000330249 -3.5401
343 1 20.0524 -10.6072 0.4575 2.22966e-05 -3.53969
344 1 19.0498 -9.11056 2.265 8.74683e-06 -3.54006
345 1 22.559 -11.102 -3.1575 3.80829e-05 -3.53961
346 1 21.5563 -9.60398 -1.35 4.88017e-06 -3.53994
347 1 20.5537 -8.10669 0.4575 7.54979e-06 -3.54019
348 1 19.5511 -6.6101 2.265 1.1713e-05 -3.54017
349 1 23.0603 -8.60013 -3.1575 4.24535e-06 -3.54021
350 1 22.0577 -7.10211 -1.35 6.30994e-06 -3.54019
351 1 21.055 -5.60457 0.4575 9.31773e-06 -3.54019
352 1 20.0524 -4.10745 2.265 1.35338e-05 -3.54018
353 1 23.5616 -6.09705 -3.1575 5.11672e-06 -3.5402
354 1 22.559 -4.59862 -1.35 7.20022e-06 -3.54019
355 1 21.5563 -3.10041 0.4575 9.91346e-06 -3.54019
356 1 20.5537 -1.60227 2.265 1.32239e-05 -3.54018
357 1 24.0629 -3.59243 -3.1575 5.4414e-06 -3.5402
358 1 23.0603 -2.09327 -1.35 7.13596e-06 -3.54019
359 1 22.0577 -0.594039 0.4575 9.04929e-06 -3.54019
360 1 21.055 0.905449 2.265 1.10048e-05 -3.54017
361 1 24.5642 -1.08619 -3.1575 5.08127e-06 -3.5402
362 1 23.5616 0.413947 -1.35 6.16465e-06 -3.54019
363 1 22.559 1.91441 0.4575 7.18108e-06 -3.54018
364 1 21.5563 3.41539 2.265 7.99879e-06 -3.54016
365 1 25.0655 1.42162 -3.1575 4.20283e-06 -3.54019
366 1 24.0629 2.92285 -1.35 4.72348e-06 -3.54018
367 1 23.0603 4.42459 0.4575 5.1024e-06 -3.54017
368 1 22.0577 5.92702 2.265 5.32808e-06 -3.54015
369 1 25.5668 3.93078 -3.1575 3.14322e-06 -3.54019
370 1 24.5642 5.4331 -1.35 3.31762e-06 -3.54018
371 1 23.5616 6.93604 0.4575 3.41674e-06 -3.54016
372 1 22.559 8.43972 2.265 3.50618e-06 -3.54015
373 1 26.0681 6.441 -3.1575 2.20185e-06 -3.54018
374 1 25.0655 7.94431 -1.35 2.25004e-06 -3.54017
375 1 24.0629 9.44825 0.4575 2.31305e-06 -3.54012
376 1 23.0603 10.9529 2.265 4.54621e-06 -3.54044
377 1 26.5694 8.95193 -3.1575 1.51974e-06 -3.54018
378 1 25.5668 10.4561 -1.35 1.56846e-06 -3.54019
379 1 24.5642 11.9608 0.4575 1.74178e-05 -3.5407
380 1 27.0708 11.4633 -3.1575 1.37492e-06 -3.54041
381 1 26.0681 12.968 -1.35 5.36091e-05 -3.54051
382 1 21.055 -12.1046 2.265 0.000330249 -3.5401
383 1 23.5616 -12.6005 -1.35 0.000389366 -3.54034
384 1 22.559 -11.102 0.4575 3.80829e-05 -3.53961
385 1 21.5563 -9.60398 2.265 4.88017e-06 -3.53994
386 1 25.0655 -11.5977 -3.1575 7.212e-05 -3.53988
387 1 24.0629 -10.0986 -1.35 2.86105e-06 -3.5398
388 1 23.0603 -8.60013 0.4575 4.24535e-06 -3.54021
389 1 22.0577 -7.10211 2.265 6.30994e-06 -3.54019
390 1 25.5668 -9.09486 -3.1575 2.50396e-06 -3.54015
391 1 24.5642 -7.59578 -1.35 3.58917e-06 -3.5402
392 1 23.5616 -6.09705 0.4575 5.11672e-06 -3.5402
393 1 22.559 -4.59862 2.265 7.20022e-06 -3.54019
394 1 26.0681 -6.59107 -3.1575 2.95633e-06 -3.5402
395 1 25.0655 -5.09167 -1.35 4.04597e-06 -3.5402
396 1 24.0629 -3.59243 0.4575 5.4414e-06 -3.5402
397 1 23.0603 -2.09327 2.265 7.13596e-06 -3.54019
398 1 26.5694 -4.08612 -3.1575 3.13736e-06 -3.54021
399 1 25.5668 -2.58617 -1.35 4.04741e-06 -3.5402
400 1 24.5642 -1.08619 0.4575 5.08127e-06 -3.5402
401 1 23.5616 0.413947 2.265 6.16465e-06 -3.54019
402 1 27.0708 -1.57994 -3.1575 2.9796e-06 -3.5402
403 1 26.0681 -0.079265 -1.35 3.59905e-06 -3.5402
404 1 25.0655 1.42162 0.4575 4.20283e-06 -3.54019
405 1 24.0629 2.92285 2.265 4.72348e-06 -3.54018
406 1 27.5721 0.927455 -3.1575 2.54709e-06 -3.5402
407 1 26.5694 2.42894 -1.35 2.87949e-06 -3.5402
408 1 25.5668 3.93078 0.4575 3.14322e-06 -3.54019
409 1 24.5642 5.4331 2.265 3.31762e-06 -3.54018
410 1 28.0734 3.43592 -3.1575 1.98876e-06 -3.5402
411 1 27.0708 4.93824 -1.35 2.12126e-06 -3.54019
412 1 26.0681 6.441 0.4575 2.20185e-06 -3.54018
413 1 25.0655 7.94431 2.265 2.25004e-06 -3.54017
414 1 28.5747 5.94525 -3.1575 1.454e-06 -3.5402
415 1 27.5721 7.44835 -1.35 1.49216e-06 -3.54019
416 1 26.5694 8.95193 0.4575 1.51974e-06 -3.54018
417 1 25.5668 10.4561 2.265 1.56846e-06 -3.54019
418 1 29.076 8.45523 -3.1575 1.03217e-06 -3.5402
419 1 28.0734 9.959 -1.35 1.05098e-06 -3.54018
420 1 27.0708 11.4633 0.4575 1.37492e-06 -3.54041
421 1 26.0681 12.968 2.265 5.36091e-05 -3.54051
422 1 29.5773 10.9656 -3.1575 1.69671e-06 -3.54036
423 1 28.5747 12.4699 -1.35 1.23967e-05 -3.54057
424 1 23.5616 -12.6005 2.265 0.000389366 -3.54034
425 1 25.0655 -11.5977 0.4575 7.212e-05 -3.53988
426 1 24.0629 -10.0986 2.265 2.86105e-06 -3.5398
427 1 27.5721 -12.0941 -3.1575 0.000104048 -3.54015
428 1 26.5694 -10.5943 -1.35 6.02747e-06 -3.53993
429 1 25.5668 -9.09486 0.4575 2.50396e-06 -3.54015
430 1 24.5642 -7.59578 2.265 3.58917e-06 -3.5402
431 1 28.0734 -9.59058 -3.1575 1.53782e-06 -3.54007
432 1 27.0708 -8.0907 -1.35 2.13732e-06 -3.54021
433 1 26.0681 -6.59107 0.4575 2.95633e-06 -3.5402
434 1 25.0655 -5.09167 2.265 4.04597e-06 -3.5402
435 1 28.5747 -7.08628 -3.1575 1.78381e-06 -3.54021
436 1 27.5721 -5.58614 -1.35 2.38267e-06 -3.54021
437 1 26.5694 -4.08612 0.4575 3.13736e-06 -3.54021
438 1 25.5668 -2.58617 2.265 4.04741e-06 -3.5402
439 1 29.076 -4.58107 -3.1575 1.88777e-06 -3.54021
440 1 28.0734 -3.08051 -1.35 2.39832e-06 -3.54021
441 1 27.0708 -1.57994 0.4575 2.9796e-06 -3.5402
442 1 26.0681 -0.079265 2.265 3.59905e-06 -3.5402
443 1 29.5773 -2.0749 -3.1575 1.81575e-06 -3.54021
444 1 28.5747 -0.573794 -1.35 2.18108e-06 -3.54021
445 1 27.5721 0.927455 0.4575 2.54709e-06 -3.5402
446 1 26.5694 2.42894 2.265 2.87949e-06 -3.5402
447 1 30.0786 0.43221 -3.1575 1.59354e-06 -3.54021
448 1 29.076 1.93394 -1.35 1.80749e-06 -3.5402
449 1 28.0734 3.43592 0.4575 1.98876e-06 -3.5402
450 1 27.0708 4.93824 2.265 2.12126e-06 -3.54019
451 1 30.5799 2.94018 -3.1575 1.2896e-06 -3.5402
452 1 29.5773 4.44256 -1.35 1.38772e-06 -3.5402
453 1 28.5747 5.94525 0.4575 1.454e-06 -3.5402
454 1 27.5721 7.44835 2.265 1.49216e-06 -3.54019
455 1 31.0812 5.44887 -3.1575 9.79752e-07 -3.5402
456 1 30.0786 6.95187 -1.35 1.01297e-06 -3.5402
457 1 29.076 8.45523 0.4575 1.03217e-06 -3.5402
458 1 28.0734 9.959 2.265 1.05098e-06 -3.54018
459 1 31.5825 7.95812 -3.1575 7.17386e-07 -3.5402
460 1 30.5799 9.46168 -1.35 7.28169e-07 -3.54017
461 1 29.5773 10.9656 0.4575 1.69671e-06 -3.54036
462 1 28.5747 12.4699 2.265 1.23967e-05 -3.54057
463 1 32.0839 10.4678 -3.1575 5.23312e-07 -3.54021
464 1 31.0812 11.9718 -1.35 5.42255e-06 -3.54051
465 1 32.5852 12.9776 -3.1575 1.85983e-05 -3.54039
466 1 27.5721 -12.0941 0.4575 0.000104048 -3.54015
467 1 26.5694 -10.5943 2.265 6.02747e-06 -3.53993
468 1 30.0786 -12.5912 -3.1575 0.00013131 -3.54029
469 1 29.076 -11.0907 -1.35 1.17293e-05 -3.53987
470 1 28.0734 -9.59058 0.4575 1.53782e-06 -3.54007
471 1 27.0708 -8.0907 2.265 2.13732e-06 -3.54021
472 1 30.5799 -10.0871 -3.1575 9.77867e-07 -3.53998
473 1 29.5773 -8.58659 -1.35 1.32359e-06 -3.54022
474 1 28.5747 -7.08628 0.4575 1.78381e-06 -3.54021
475 1 27.5721 -5.58614 2.265 2.38267e-06 -3.54021
476 1 31.0812 -7.58241 -3.1575 1.11726e-06 -3.54021
477 1 30.0786 -6.08169 -1.35 1.46101e-06 -3.54021
478 1 29.076 -4.58107 0.4575 1.88777e-06 -3.54021
479 1 28.0734 -3.08051 2.265 2.39832e-06 -3.54021
480 1 31.5825 -5.07699 -3.1575 1.17882e-06 -3.54021
481 1 30.5799 -3.57595 -1.35 1.4767e-06 -3.54021
482 1 29.5773 -2.0749 0.4575 1.81575e-06 -3.54021
483 1 28.5747 -0.573794 2.265 2.18108e-06 -3.54021
484 1 32.0839 -2.57082 -3.1575 1.14487e-06 -3.54021
485 1 31.0812 -1.06935 -1.35 1.36678e-06 -3.54021
486 1 30.0786 0.43221 0.4575 1.59354e-06 -3.54021
487 1 29.076 1.93394 2.265 1.80749e-06 -3.5402
488 1 32.5852 -0.0639013 -3.1575 1.02618e-06 -3.54021
489 1 31.5825 1.43805 -1.35 1.16557e-06 -3.54021
490 1 30.5799 2.94018 0.4575 1.2896e-06 -3.5402
491 1 29.5773 4.44256 2.265 1.38772e-06 -3.5402
492 1 33.0865 2.44371 -3.1575 8.5551e-07 -3.54021
493 1 32.0839 3.94617 -1.35 9.26939e-07 -3.54021
494 1 31.0812 5.44887 0.4575 9.79752e-07 -3.5402
495 1 30.0786 6.95187 2.265 1.01297e-06 -3.5402
496 1 33.5878 4.95193 -3.1575 6.72167e-07 -3.54021
497 1 32.5852 6.45489 -1.35 7.00504e-07 -3.5402
498 1 31.5825 7.95812 0.4575 7.17386e-07 -3.5402
499 1 30.5799 9.46168 2.265 7.28169e-07 -3.54017
500 1 34.0891 7.46063 -3.1575 5.07417e-07 -3.54021
501 1 33.0865 8.96405 -1.35 5.16309e-07 -3.5402
502 1 32.0839 10.4678 0.4575 5.23312e-07 -3.54021
503 1 31.0812 11.9718 2.265 5.42255e-06 -3.54051
504 1 34.5904 9.96969 -3.1575 3.77417e-07 -3.5402
505 1 33.5878 11.4735 -1.35 4.19348e-07 -3.54034
506 1 32.5852 12.9776 0.4575 1.85983e-05 -3.54039
507 1 35.0917 12.479 -3.1575 4.49524e-06 -3.54044
508 1 30.0786 -12.5912 0.4575 0.00013131 -3.54029
509 1 29.076 -11.0907 2.265 1.17293e-05 -3.53987
510 1 31.5825 -11.5878 -1.35 2.40756e-05 -3.54002
511 1 30.5799 -10.0871 0.4575 9.77867e-07 -3.53998
512 1 29.5773 -8.58659 2.265 1.32359e-06 -3.54022
513 1 33.0865 -10.5843 -3.1575 1.96746e-06 -3.54004
514 1 32.0839 -9.08325 -1.35 8.47875e-07 -3.54018
515 1 31.0812 -7.58241 0.4575 1.11726e-06 -3.54021
516 1 30.0786 -6.08169 2.265 1.46101e-06 -3.54021
517 1 33.5878 -8.07926 -3.1575 7.22837e-07 -3.54022
518 1 32.5852 -6.57809 -1.35 9.27801e-07 -3.54021
519 1 31.5825 -5.07699 0.4575 1.17882e-06 -3.54021
520 1 30.5799 -3.57595 2.265 1.4767e-06 -3.54021
521 1 34.0891 -5.57369 -3.1575 7.60385e-07 -3.54021
522 1 33.0865 -4.07225 -1.35 9.40367e-07 -3.54021
523 1 32.0839 -2.57082 0.4575 1.14487e-06 -3.54021
524 1 31.0812 -1.06935 2.265 1.36678e-06 -3.54021
525 1 34.5904 -3.0675 -3.1575 7.44005e-07 -3.54021
526 1 33.5878 -1.56574 -1.35 8.82574e-07 -3.54021
527 1 32.5852 -0.0639013 0.4575 1.02618e-06 -3.54021
528 1 31.5825 1.43805 2.265 1.16557e-06 -3.54021
529 1 35.0917 -0.560713 -3.1575 6.78353e-07 -3.54021
530 1 34.0891 0.941436 -1.35 7.70468e-07 -3.54021
531 1 33.0865 2.44371 0.4575 8.5551e-07 -3.54021
532 1 32.0839 3.94617 2.265 9.26939e-07 -3.54021
533 1 35.593 1.94664 -3.1575 5.79673e-07 -3.54021
534 1 34.5904 3.4492 -1.35 6.31248e-07 -3.54021
535 1 33.5878 4.95193 0.4575 6.72167e-07 -3.54021
536 1 32.5852 6.45489 2.265 7.00504e-07 -3.5402
537 1 36.0943 4.4545 -3.1575 4.68857e-07 -3.54021
538 1 35.0917 5.95746 -1.35 4.92202e-07 -3.54021
539 1 34.0891 7.46063 0.4575 5.07417e-07 -3.54021
540 1 33.0865 8.96405 2.265 5.16309e-07 -3.5402
541 1 36.5957 6.96278 -3.1575 3.64164e-07 -3.54021
542 1 35.593 8.46612 -1.35 3.72399e-07 -3.54021
543 1 34.5904 9.96969 0.4575 3.77417e-07 -3.5402
544 1 33.5878 11.4735 2.265 4.19348e-07 -3.54034
545 1 37.097 9.47138 -3.1575 2.76857e-07 -3.54019
546 1 36.0943 10.9751 -1.35 6.88581e-07 -3.54031
547 1 35.0917 12.479 0.4575 4.49524e-06 -3.54044
548 1 37.5983 11.9802 -3.1575 1.96402e-06 -3.5404
549 1 31.5825 -11.5878 2.265 2.40756e-05 -3.54002
550 1 34.0891 -12.0854 -1.35 3.74647e-05 -3.54018
551 1 33.0865 -10.5843 0.4575 1.96746e-06 -3.54004
552 1 32.0839 -9.08325 2.265 8.47875e-07 -3.54018
553 1 35.593 -11.0819 -3.1575 4.20351e-06 -3.54
554 1 34.5904 -9.58053 -1.35 5.59404e-07 -3.54013
555 1 33.5878 -8.07926 0.4575 7.22837e-07 -3.54022
556 1 32.5852 -6.57809 2.265 9.27801e-07 -3.54021
557 1 36.0943 -8.5767 -3.1575 4.81112e-07 -3.54022
558 1 35.0917 -7.07516 -1.35 6.07497e-07 -3.54021
559 1 34.0891 -5.57369 0.4575 7.60385e-07 -3.54021
560 1 33.0865 -4.07225 2.265 9.40367e-07 -3.54021
561 1 36.5957 -6.07099 -3.1575 5.04655e-07 -3.54021
562 1 35.593 -4.56924 -1.35 6.16856e-07 -3.54021
563 1 34.5904 -3.0675 0.4575 7.44005e-07 -3.54021
564 1 33.5878 -1.56574 2.265 8.82574e-07 -3.54021
565 1 37.097 -3.56479 -3.1575 4.9666e-07 -3.54021
566 1 36.0943 -2.06278 -1.35 5.85425e-07 -3.54021
567 1 35.0917 -0.560713 0.4575 6.78353e-07 -3.54021
568 1 34.0891 0.941436 2.265 7.70468e-07 -3.54021
569 1 37.5983 -1.0581 -3.1575 4.59179e-07 -3.54021
570 1 36.5957 0.444226 -1.35 5.20993e-07 -3.54021
571 1 35.593 1.94664 0.4575 5.79673e-07 -3.54021
572 1 34.5904 3.4492 2.265 6.31248e-07 -3.54021
573 1 38.0996 1.44907 -3.1575 4.00554e-07 -3.54021
574 1 37.097 2.95172 -1.35 4.37729e-07 -3.54021
575 1 36.0943 4.4545 0.4575 4.68857e-07 -3.54021
576 1 35.0917 5.95746 2.265 4.92202e-07 -3.54021
577 1 38.6009 3.95666 -3.1575 3.32165e-07 -3.54021
578 1 37.5983 5.45964 -1.35 3.50879e-07 -3.54021
579 1 36.5957 6.96278 0.4575 3.64164e-07 -3.54021
580 1 35.593 8.46612 2.265 3.72399e-07 -3.54021
581 1 39.1022 6.46461 -3.1575 2.64743e-07 -3.54021
582 1 38.0996 7.96791 -1.35 2.72304e-07 -3.54021
583 1 37.097 9.47138 0.4575 2.76857e-07 -3.54019
584 1 36.0943 10.9751 2.265 6.88581e-07 -3.54031
585 1 39.6035 8.97285 -3.1575 2.05794e-07 -3.54021
586 1 38.6009 10.4764 -1.35 2.08421e-07 -3.54022
587 1 37.5983 11.9802 0.4575 1.96402e-06 -3.5404
588 1 40.1048 11.4813 -3.1575 1.56869e-07 -3.5403
589 1 39.1022 12.9852 -1.35 7.46239e-06 -3.54033
590 1 34.0891 -12.0854 2.265 3.74647e-05 -3.54018
591 1 36.5957 -12.5834 -1.35 5.00887e-05 -3.54027
592 1 35.593 -11.0819 0.4575 4.20351e-06 -3.54
593 1 34.5904 -9.58053 2.265 5.59404e-07 -3.54013
594 1 38.0996 -11.58 -3.1575 9.14925e-06 -3.54009
595 1 37.097 -10.0783 -1.35 3.78782e-07 -3.54007
596 1 36.0943 -8.5767 0.4575 4.81112e-07 -3.54022
597 1 35.0917 -7.07516 2.265 6.07497e-07 -3.54021
598 1 38.6009 -9.07462 -3.1575 3.28334e-07 -3.5402
599 1 37.5983 -7.57278 -1.35 4.08614e-07 -3.54022
600 1 36.5957 -6.07099 0.4575 5.04655e-07 -3.54021
601 1 35.593 -4.56924 2.265 6.16856e-07 -3.54021