ITEM: TIMESTEP
0
ITEM: NUMBER OF ATOMS
3190
ITEM: BOX BOUNDS xy xz yz mm pp pp
-1.0009999999999999e+02 1.0009999999999999e+02 0.0000000000000000e+00
-1.3034063250000001e+01 1.3034063250000001e+01 0.0000000000000000e+00
-3.6150000000000002e+00 3.6150000000000002e+00 0.0000000000000000e+00
ITEM: ATOMS id type x y z c_csym c_energy
1 1 -2.814e-07 6.51703 -3.1575 8.7952 -1.44538
2 1 0.50131 9.02359 -3.1575 7.18334 -1.10949
3 1 1.00262 11.5301 -3.1575 5.25686 -3.4949
4 1 -5.628e-07 -13.0341 -1.35 8.79511 -1.44536
5 1 2.814e-07 -6.51703 -3.1575 8.7952 -1.44539
6 1 0.50131 -4.01048 -3.1575 7.18334 -1.1095
7 1 1.00262 -1.50393 -3.1575 5.25686 -3.4949
8 1 -2.84217e-14 0 -1.35 8.7952 -1.44538
9 1 1.50393 1.00262 -3.1575 1.46587 -3.57078
10 1 0.50131 2.50655 -1.35 7.18334 -1.10949
11 1 2.00524 3.50917 -3.1575 2.47111 -3.55241
12 1 1.00262 5.0131 -1.35 5.25686 -3.4949
13 1 -2.814e-07 6.51703 0.4575 8.7952 -1.44538
14 1 2.50655 6.01572 -3.1575 5.00359e-20 -3.53372
15 1 1.50393 7.51965 -1.35 1.46587 -3.57078
16 1 0.50131 9.02359 0.4575 7.18334 -1.10949
17 1 3.00786 8.52228 -3.1575 1.00014e-19 -3.55241
18 1 2.00524 10.0262 -1.35 2.47111 -3.55241
19 1 1.00262 11.5301 0.4575 5.25686 -3.4949
20 1 -5.628e-07 -13.0341 2.265 8.79511 -1.44536
21 1 3.50917 11.0288 -3.1575 8.6307e-11 -3.53387
22 1 2.50655 12.5328 -1.35 4.31525e-10 -3.53372
23 1 1.50393 -12.0314 -3.1575 1.46587 -3.57078
24 1 0.501311 -10.5275 -1.35 7.18334 -1.1095
25 1 2.00524 -9.5249 -3.1575 2.47111 -3.55241
26 1 1.00262 -8.02096 -1.35 5.25686 -3.4949
27 1 2.814e-07 -6.51703 0.4575 8.7952 -1.44539
28 1 2.50655 -7.01834 -3.1575 4.99791e-20 -3.53372
29 1 1.50393 -5.51441 -1.35 1.46587 -3.57078
30 1 0.50131 -4.01048 0.4575 7.18334 -1.1095
31 1 3.00786 -4.51179 -3.1575 8.99918e-20 -3.55241
32 1 2.00524 -3.00786 -1.35 2.47111 -3.55241
33 1 1.00262 -1.50393 0.4575 5.25686 -3.4949
34 1 -2.84217e-14 0 2.265 8.7952 -1.44538
35 1 3.50917 -2.00524 -3.1575 9.00121e-20 -3.53387
36 1 2.50655 -0.50131 -1.35 5.00075e-20 -3.53372
37 1 1.50393 1.00262 0.4575 1.46587 -3.57078
38 1 0.50131 2.50655 2.265 7.18334 -1.10949
39 1 4.01048 0.50131 -3.1575 5.00132e-20 -3.54011
40 1 3.00786 2.00524 -1.35 8.99922e-20 -3.55241
41 1 2.00524 3.50917 0.4575 2.47111 -3.55241
42 1 1.00262 5.0131 2.265 5.25686 -3.4949
43 1 4.51179 3.00786 -3.1575 8.99812e-20 -3.54011
44 1 3.50917 4.51179 -1.35 9.00366e-20 -3.53387
45 1 2.50655 6.01572 0.4575 5.00359e-20 -3.53372
46 1 1.50393 7.51965 2.265 1.46587 -3.57078
47 1 5.0131 5.51441 -3.1575 1.99943e-20 -3.54022
48 1 4.01048 7.01834 -1.35 6.00242e-20 -3.54011
49 1 3.00786 8.52228 0.4575 1.00014e-19 -3.55241
50 1 2.00524 10.0262 2.265 2.47111 -3.55241
51 1 5.51441 8.02097 -3.1575 3.99979e-20 -3.54022
52 1 4.51179 9.5249 -1.35 1.10014e-19 -3.54011
53 1 3.50917 11.0288 0.4575 8.6307e-11 -3.53387
54 1 2.50655 12.5328 2.265 4.31525e-10 -3.53372
55 1 6.01572 10.5275 -3.1575 4.00014e-20 -3.54022
56 1 5.0131 12.0314 -1.35 2.58915e-10 -3.54022
57 1 6.51703 -13.0341 -3.1575 5.17829e-10 -3.54022
58 1 1.50393 -12.0314 0.4575 1.46587 -3.57078
59 1 0.501311 -10.5275 2.265 7.18334 -1.1095
60 1 4.01048 -12.5328 -3.1575 5.1783e-10 -3.54011
61 1 3.00786 -11.0288 -1.35 8.6307e-11 -3.55241
62 1 2.00524 -9.5249 0.4575 2.47111 -3.55241
63 1 1.00262 -8.02096 2.265 5.25686 -3.4949
64 1 4.51179 -10.0262 -3.1575 7.00025e-20 -3.54011
65 1 3.50917 -8.52227 -1.35 7.99688e-20 -3.53387
66 1 2.50655 -7.01834 0.4575 4.99791e-20 -3.53372
67 1 1.50393 -5.51441 2.265 1.46587 -3.57078
68 1 5.0131 -7.51965 -3.1575 2.00007e-20 -3.54022
69 1 4.01048 -6.01572 -1.35 4.99933e-20 -3.54011
70 1 3.00786 -4.51179 0.4575 8.99918e-20 -3.55241
71 1 2.00524 -3.00786 2.265 2.47111 -3.55241
72 1 5.51441 -5.0131 -3.1575 2.00007e-20 -3.54022
73 1 4.51179 -3.50917 -1.35 8.99975e-20 -3.54011
74 1 3.50917 -2.00524 0.4575 9.00121e-20 -3.53387
75 1 2.50655 -0.50131 2.265 5.00075e-20 -3.53372
76 1 6.01572 -2.50655 -3.1575 5.00021e-20 -3.54022
77 1 5.0131 -1.00262 -1.35 2.00032e-20 -3.54022
78 1 4.01048 0.50131 0.4575 5.00132e-20 -3.54011
79 1 3.00786 2.00524 2.265 8.99922e-20 -3.55241
80 1 6.51703 2.814e-07 -3.1575 2.10468e-27 -3.54022
81 1 5.51441 1.50393 -1.35 2.00004e-20 -3.54022
82 1 4.51179 3.00786 0.4575 8.99812e-20 -3.54011
83 1 3.50917 4.51179 2.265 9.00366e-20 -3.53387
84 1 7.01834 2.50655 -3.1575 4.99986e-20 -3.54022
85 1 6.01572 4.01048 -1.35 5.00004e-20 -3.54022
86 1 5.0131 5.51441 0.4575 1.99943e-20 -3.54022
87 1 4.01048 7.01834 2.265 6.00242e-20 -3.54011
88 1 7.51965 5.0131 -3.1575 1.9994e-20 -3.54022
89 1 6.51703 6.51703 -1.35 4.55173e-28 -3.54022
90 1 5.51441 8.02097 0.4575 3.99979e-20 -3.54022
91 1 4.51179 9.5249 2.265 1.10014e-19 -3.54011
92 1 8.02096 7.51965 -3.1575 1.99922e-20 -3.54022
93 1 7.01834 9.02359 -1.35 5.99965e-20 -3.54022
94 1 6.01572 10.5275 0.4575 4.00014e-20 -3.54022
95 1 5.0131 12.0314 2.265 2.58915e-10 -3.54022
96 1 8.52227 10.0262 -3.1575 6.00057e-20 -3.54022
97 1 7.51965 11.5301 -1.35 8.63067e-11 -3.54022
98 1 6.51703 -13.0341 0.4575 5.17829e-10 -3.54022
99 1 9.02358 12.5328 -3.1575 4.31525e-10 -3.54022
100 1 4.01048 -12.5328 0.4575 5.1783e-10 -3.54011
101 1 3.00786 -11.0288 2.265 8.6307e-11 -3.55241
102 1 5.51441 -11.5301 -1.35 2.58916e-10 -3.54022
103 1 4.51179 -10.0262 0.4575 7.00025e-20 -3.54011
104 1 3.50917 -8.52227 2.265 7.99688e-20 -3.53387
105 1 7.01834 -10.5275 -3.1575 8.63067e-11 -3.54022
106 1 6.01572 -9.02359 -1.35 5.00018e-20 -3.54022
107 1 5.0131 -7.51965 0.4575 2.00007e-20 -3.54022
108 1 4.01048 -6.01572 2.265 4.99933e-20 -3.54011
109 1 7.51965 -8.02096 -3.1575 2e-20 -3.54022
110 1 6.51703 -6.51703 -1.35 9.09478e-27 -3.54022
111 1 5.51441 -5.0131 0.4575 2.00007e-20 -3.54022
112 1 4.51179 -3.50917 2.265 8.99975e-20 -3.54011
113 1 8.02097 -5.51441 -3.1575 3.99837e-20 -3.54022
114 1 7.01834 -4.01048 -1.35 6.00039e-20 -3.54022
115 1 6.01572 -2.50655 0.4575 5.00021e-20 -3.54022
116 1 5.0131 -1.00262 2.265 2.00032e-20 -3.54022
117 1 8.52228 -3.00786 -3.1575 9.99734e-20 -3.54022
118 1 7.51965 -1.50393 -1.35 2.00057e-20 -3.54022
119 1 6.51703 2.814e-07 0.4575 2.10468e-27 -3.54022
120 1 5.51441 1.50393 2.265 2.00004e-20 -3.54022
121 1 9.02359 -0.50131 -3.1575 4.99847e-20 -3.54022
122 1 8.02096 1.00262 -1.35 1.99996e-20 -3.54022
123 1 7.01834 2.50655 0.4575 4.99986e-20 -3.54022
124 1 6.01572 4.01048 2.265 5.00004e-20 -3.54022
125 1 9.5249 2.00524 -3.1575 1.09988e-19 -3.54022
126 1 8.52227 3.50917 -1.35 8.00039e-20 -3.54022
127 1 7.51965 5.0131 0.4575 1.9994e-20 -3.54022
128 1 6.51703 6.51703 2.265 4.54384e-28 -3.54022
129 1 10.0262 4.51179 -3.1575 7.00196e-20 -3.54022
130 1 9.02359 6.01572 -1.35 5.00018e-20 -3.54022
131 1 8.02096 7.51965 0.4575 1.99922e-20 -3.54022
132 1 7.01834 9.02359 2.265 5.99965e-20 -3.54022
133 1 10.5275 7.01834 -3.1575 5.99574e-20 -3.54022
134 1 9.5249 8.52228 -1.35 9.99773e-20 -3.54022
135 1 8.52227 10.0262 0.4575 6.00057e-20 -3.54022
136 1 7.51965 11.5301 2.265 8.63067e-11 -3.54022
137 1 11.0288 9.5249 -3.1575 1.09965e-19 -3.54022
138 1 10.0262 11.0288 -1.35 8.6307e-11 -3.54022
139 1 9.02358 12.5328 0.4575 4.31525e-10 -3.54022
140 1 11.5301 12.0314 -3.1575 2.58915e-10 -3.54022
141 1 5.51441 -11.5301 2.265 2.58916e-10 -3.54022
142 1 8.02097 -12.0314 -1.35 4.31526e-10 -3.54022
143 1 7.01834 -10.5275 0.4575 8.63067e-11 -3.54022
144 1 6.01572 -9.02359 2.265 5.00018e-20 -3.54022
145 1 9.5249 -11.0288 -3.1575 8.6307e-11 -3.54022
146 1 8.52228 -9.5249 -1.35 9.99865e-20 -3.54022
147 1 7.51965 -8.02096 0.4575 2e-20 -3.54022
148 1 6.51703 -6.51703 2.265 9.09399e-27 -3.54022
149 1 10.0262 -8.52227 -3.1575 5.99936e-20 -3.54022
150 1 9.02359 -7.01834 -1.35 5.99794e-20 -3.54022
151 1 8.02097 -5.51441 0.4575 3.99837e-20 -3.54022
152 1 7.01834 -4.01048 2.265 6.00039e-20 -3.54022
153 1 10.5275 -6.01572 -3.1575 3.9995e-20 -3.54022
154 1 9.5249 -4.51179 -1.35 1.09952e-19 -3.54022
155 1 8.52228 -3.00786 0.4575 9.99734e-20 -3.54022
156 1 7.51965 -1.50393 2.265 2.00057e-20 -3.54022
157 1 11.0288 -3.50917 -3.1575 6.99988e-20 -3.54022
158 1 10.0262 -2.00524 -1.35 5.99904e-20 -3.54022
159 1 9.02359 -0.50131 0.4575 4.99847e-20 -3.54022
160 1 8.02096 1.00262 2.265 1.99996e-20 -3.54022
161 1 11.5301 -1.00262 -3.1575 1.00004e-20 -3.54022
162 1 10.5275 0.501311 -1.35 5.99929e-20 -3.54022
163 1 9.5249 2.00524 0.4575 1.09988e-19 -3.54022
164 1 8.52227 3.50917 2.265 8.00039e-20 -3.54022
165 1 12.0314 1.50393 -3.1575 4.00007e-20 -3.54022
166 1 11.0288 3.00786 -1.35 8.99936e-20 -3.54022
167 1 10.0262 4.51179 0.4575 7.00196e-20 -3.54022
168 1 9.02359 6.01572 2.265 5.00018e-20 -3.54022
169 1 12.5328 4.01048 -3.1575 3.00014e-20 -3.54022
170 1 11.5301 5.51441 -1.35 1.00004e-20 -3.54022
171 1 10.5275 7.01834 0.4575 5.99574e-20 -3.54022
172 1 9.5249 8.52228 2.265 9.99773e-20 -3.54022
173 1 13.0341 6.51703 -3.1575 1.70394e-27 -3.54022
174 1 12.0314 8.02097 -1.35 3.99993e-20 -3.54022
175 1 11.0288 9.5249 0.4575 1.09965e-19 -3.54022
176 1 10.0262 11.0288 2.265 8.6307e-11 -3.54022
177 1 13.5354 9.02359 -3.1575 6.00014e-20 -3.54022
178 1 12.5328 10.5275 -1.35 4.00014e-20 -3.54022
179 1 11.5301 12.0314 0.4575 2.58915e-10 -3.54022
180 1 14.0367 11.5301 -3.1575 8.63067e-11 -3.54022
181 1 13.0341 -13.0341 -1.35 5.17829e-10 -3.54022
182 1 8.02097 -12.0314 2.265 4.31526e-10 -3.54022
183 1 10.5275 -12.5328 -1.35 5.17832e-10 -3.54022
184 1 9.5249 -11.0288 0.4575 8.6307e-11 -3.54022
185 1 8.52228 -9.5249 2.265 9.99865e-20 -3.54022
186 1 12.0314 -11.5301 -3.1575 2.5892e-10 -3.54022
187 1 11.0288 -10.0262 -1.35 7.00004e-20 -3.54022
188 1 10.0262 -8.52227 0.4575 5.99936e-20 -3.54022
189 1 9.02359 -7.01834 2.265 5.99794e-20 -3.54022
190 1 12.5328 -9.02358 -3.1575 3.00004e-20 -3.54022
191 1 11.5301 -7.51965 -1.35 1.00004e-20 -3.54022
192 1 10.5275 -6.01572 0.4575 3.9995e-20 -3.54022
193 1 9.5249 -4.51179 2.265 1.09952e-19 -3.54022
194 1 13.0341 -6.51703 -3.1575 1.22431e-27 -3.54022
195 1 12.0314 -5.0131 -1.35 2.99989e-20 -3.54022
196 1 11.0288 -3.50917 0.4575 6.99988e-20 -3.54022
197 1 10.0262 -2.00524 2.265 5.99904e-20 -3.54022
198 1 13.5354 -4.01048 -3.1575 7.00018e-20 -3.54022
199 1 12.5328 -2.50655 -1.35 3.00007e-20 -3.54022
200 1 11.5301 -1.00262 0.4575 1.00004e-20 -3.54022
201 1 10.5275 0.501311 2.265 5.99929e-20 -3.54022
202 1 14.0367 -1.50393 -3.1575 2.00004e-20 -3.54022
203 1 13.0341 5.628e-07 -1.35 9.90888e-27 -3.54022
204 1 12.0314 1.50393 0.4575 4.00007e-20 -3.54022
205 1 11.0288 3.00786 2.265 8.99936e-20 -3.54022
206 1 14.538 1.00262 -3.1575 2.00007e-20 -3.54022
207 1 13.5354 2.50655 -1.35 5.99997e-20 -3.54022
208 1 12.5328 4.01048 0.4575 3.00014e-20 -3.54022
209 1 11.5301 5.51441 2.265 1.00004e-20 -3.54022
210 1 15.0393 3.50917 -3.1575 7.99911e-20 -3.54022
211 1 14.0367 5.0131 -1.35 2e-20 -3.54022
212 1 13.0341 6.51703 0.4575 1.70394e-27 -3.54022
213 1 12.0314 8.02097 2.265 3.99993e-20 -3.54022
214 1 15.5406 6.01572 -3.1575 4.99904e-20 -3.54022
215 1 14.538 7.51966 -1.35 2e-20 -3.54022
216 1 13.5354 9.02359 0.4575 6.00014e-20 -3.54022
217 1 12.5328 10.5275 2.265 4.00014e-20 -3.54022
218 1 16.0419 8.52228 -3.1575 9.99922e-20 -3.54022
219 1 15.0393 10.0262 -1.35 6.00021e-20 -3.54022
220 1 14.0367 11.5301 0.4575 8.63067e-11 -3.54022
221 1 13.0341 -13.0341 2.265 5.17829e-10 -3.54022
222 1 16.5432 11.0288 -3.1575 8.6307e-11 -3.54022
223 1 15.5406 12.5328 -1.35 4.31525e-10 -3.54022
224 1 10.5275 -12.5328 2.265 5.17832e-10 -3.54022
225 1 12.0314 -11.5301 0.4575 2.5892e-10 -3.54022
226 1 11.0288 -10.0262 2.265 7.00004e-20 -3.54022
227 1 14.538 -12.0314 -3.1575 4.31526e-10 -3.54022
228 1 13.5354 -10.5275 -1.35 8.63067e-11 -3.54022
229 1 12.5328 -9.02358 0.4575 3.00004e-20 -3.54022
230 1 11.5301 -7.51965 2.265 1.00004e-20 -3.54022
231 1 15.0393 -9.5249 -3.1575 1.00036e-19 -3.54022
232 1 14.0367 -8.02096 -1.35 2e-20 -3.54022
233 1 13.0341 -6.51703 0.4575 1.22431e-27 -3.54022
234 1 12.0314 -5.0131 2.265 2.99989e-20 -3.54022
235 1 15.5406 -7.01834 -3.1575 6.00419e-20 -3.54022
236 1 14.538 -5.51441 -1.35 3.99954e-20 -3.54022
237 1 13.5354 -4.01048 0.4575 7.00018e-20 -3.54022
238 1 12.5328 -2.50655 2.265 3.00007e-20 -3.54022
239 1 16.0419 -4.51179 -3.1575 1.09998e-19 -3.54022
240 1 15.0393 -3.00786 -1.35 9.9992e-20 -3.54022
241 1 14.0367 -1.50393 0.4575 2.00004e-20 -3.54022
242 1 13.0341 5.628e-07 2.265 9.90809e-27 -3.54022
243 1 16.5432 -2.00524 -3.1575 5.99904e-20 -3.54022
244 1 15.5406 -0.50131 -1.35 4.99847e-20 -3.54022
245 1 14.538 1.00262 0.4575 2.00007e-20 -3.54022
246 1 13.5354 2.50655 2.265 5.99997e-20 -3.54022
247 1 17.0446 0.501311 -3.1575 6.00135e-20 -3.54022
248 1 16.0419 2.00524 -1.35 1.10045e-19 -3.54022
249 1 15.0393 3.50917 0.4575 7.99911e-20 -3.54022
250 1 14.0367 5.0131 2.265 2e-20 -3.54022
251 1 17.5459 3.00786 -3.1575 8.00188e-20 -3.54022
252 1 16.5432 4.51179 -1.35 6.99961e-20 -3.54022
253 1 15.5406 6.01572 0.4575 4.99904e-20 -3.54022
254 1 14.538 7.51966 2.265 2e-20 -3.54022
255 1 18.0472 5.51441 -3.1575 1.00004e-20 -3.54022
256 1 17.0445 7.01834 -1.35 5.99929e-20 -3.54022
257 1 16.0419 8.52228 0.4575 9.99922e-20 -3.54022
258 1 15.0393 10.0262 2.265 6.00021e-20 -3.54022
259 1 18.5485 8.02097 -3.1575 6.00021e-20 -3.54022
260 1 17.5459 9.5249 -1.35 9.9995e-20 -3.54022
261 1 16.5432 11.0288 0.4575 8.6307e-11 -3.54022
262 1 15.5406 12.5328 2.265 4.31525e-10 -3.54022
263 1 19.0498 10.5275 -3.1575 2.00007e-20 -3.54022
264 1 18.0472 12.0314 -1.35 2.58915e-10 -3.54022
265 1 19.5511 -13.0341 -3.1575 5.17829e-10 -3.54022
266 1 14.538 -12.0314 0.4575 4.31526e-10 -3.54022
267 1 13.5354 -10.5275 2.265 8.63067e-11 -3.54022
268 1 17.0446 -12.5328 -3.1575 5.17832e-10 -3.54022
269 1 16.0419 -11.0288 -1.35 8.6307e-11 -3.54022
270 1 15.0393 -9.5249 0.4575 1.00036e-19 -3.54022
271 1 14.0367 -8.02096 2.265 2e-20 -3.54022
272 1 17.5459 -10.0262 -3.1575 6.99982e-20 -3.54022
273 1 16.5432 -8.52227 -1.35 6.00363e-20 -3.54022
274 1 15.5406 -7.01834 0.4575 6.00419e-20 -3.54022
275 1 14.538 -5.51441 2.265 3.99954e-20 -3.54022
276 1 18.0472 -7.51965 -3.1575 1.00004e-20 -3.54022
277 1 17.0446 -6.01572 -1.35 4.00185e-20 -3.54022
278 1 16.0419 -4.51179 0.4575 1.09998e-19 -3.54022
279 1 15.0393 -3.00786 2.265 9.9992e-20 -3.54022
280 1 18.5485 -5.0131 -3.1575 5.00014e-20 -3.54022
281 1 17.5459 -3.50917 -1.35 6.0002e-20 -3.54022
282 1 16.5432 -2.00524 0.4575 5.99904e-20 -3.54022
283 1 15.5406 -0.50131 2.265 4.99847e-20 -3.54022
284 1 19.0498 -2.50655 -3.1575 9.99965e-21 -3.54022
285 1 18.0472 -1.00262 -1.35 1.00004e-20 -3.54022
286 1 17.0446 0.501311 0.4575 6.00135e-20 -3.54022
287 1 16.0419 2.00524 2.265 1.10045e-19 -3.54022
288 1 19.5511 8.442e-07 -3.1575 9.99965e-21 -3.54022
289 1 18.5485 1.50393 -1.35 5.99918e-20 -3.54022
290 1 17.5459 3.00786 0.4575 8.00188e-20 -3.54022
291 1 16.5432 4.51179 2.265 6.99961e-20 -3.54022
292 1 20.0524 2.50655 -3.1575 6.00011e-20 -3.54022
293 1 19.0498 4.01048 -1.35 9.9993e-21 -3.54022
294 1 18.0472 5.51441 0.4575 1.00004e-20 -3.54022
295 1 17.0445 7.01834 2.265 5.99929e-20 -3.54022
296 1 20.5537 5.0131 -3.1575 1.00004e-20 -3.54022
297 1 19.5511 6.51703 -1.35 9.99966e-21 -3.54022
298 1 18.5485 8.02097 0.4575 6.00021e-20 -3.54022
299 1 17.5459 9.5249 2.265 9.9995e-20 -3.54022
300 1 21.055 7.51966 -3.1575 4.00014e-20 -3.54022
301 1 20.0524 9.02359 -1.35 6.00022e-20 -3.54022
302 1 19.0498 10.5275 0.4575 2.00007e-20 -3.54022
303 1 18.0472 12.0314 2.265 2.58915e-10 -3.54022
304 1 21.5563 10.0262 -3.1575 5.99901e-20 -3.54022
305 1 20.5537 11.5301 -1.35 8.63049e-11 -3.54022
306 1 19.5511 -13.0341 0.4575 5.17829e-10 -3.54022
307 1 22.0577 12.5328 -3.1575 4.31526e-10 -3.54022
308 1 17.0446 -12.5328 0.4575 5.17832e-10 -3.54022
309 1 16.0419 -11.0288 2.265 8.6307e-11 -3.54022
310 1 18.5485 -11.5301 -1.35 2.5892e-10 -3.54022
311 1 17.5459 -10.0262 0.4575 6.99982e-20 -3.54022
312 1 16.5432 -8.52227 2.265 6.00363e-20 -3.54022
313 1 20.0524 -10.5275 -3.1575 8.63067e-11 -3.54022
314 1 19.0498 -9.02358 -1.35 3.00011e-20 -3.54022
315 1 18.0472 -7.51965 0.4575 1.00004e-20 -3.54022
316 1 17.0446 -6.01572 2.265 4.00185e-20 -3.54022
317 1 20.5537 -8.02096 -3.1575 2e-20 -3.54022
318 1 19.5511 -6.51703 -1.35 1e-20 -3.54022
319 1 18.5485 -5.0131 0.4575 5.00014e-20 -3.54022
320 1 17.5459 -3.50917 2.265 6.0002e-20 -3.54022
321 1 21.055 -5.51441 -3.1575 6.00181e-20 -3.54022
322 1 20.0524 -4.01048 -1.35 7.00011e-20 -3.54022
323 1 19.0498 -2.50655 0.4575 9.99965e-21 -3.54022
324 1 18.0472 -1.00262 2.265 1.00004e-20 -3.54022
325 1 21.5563 -3.00786 -3.1575 8.00396e-20 -3.54022
326 1 20.5537 -1.50393 -1.35 1.00004e-20 -3.54022
327 1 19.5511 8.442e-07 0.4575 9.99965e-21 -3.54022
328 1 18.5485 1.50393 2.265 5.99918e-20 -3.54022
329 1 22.0577 -0.501309 -3.1575 5.00387e-20 -3.54022
330 1 21.055 1.00262 -1.35 3.99975e-20 -3.54022
331 1 20.0524 2.50655 0.4575 6.00011e-20 -3.54022
332 1 19.0498 4.01048 2.265 9.9993e-21 -3.54022
333 1 22.559 2.00524 -3.1575 1.2004e-19 -3.54022
334 1 21.5563 3.50917 -1.35 5.99883e-20 -3.54022
335 1 20.5537 5.0131 0.4575 1.00004e-20 -3.54022
336 1 19.5511 6.51703 2.265 9.99966e-21 -3.54022
337 1 23.0603 4.51179 -3.1575 6.99943e-20 -3.54022
338 1 22.0577 6.01572 -1.35 4.99847e-20 -3.54022
339 1 21.055 7.51966 0.4575 4.00014e-20 -3.54022
340 1 20.0524 9.02359 2.265 6.00022e-20 -3.54022
341 1 23.5616 7.01835 -3.1575 6.00021e-20 -3.54022
342 1 22.559 8.52228 -1.35 1.19979e-19 -3.54022
343 1 21.5563 10.0262 0.4575 5.99901e-20 -3.54022
344 1 20.5537 11.5301 2.265 8.63049e-11 -3.54022
345 1 24.0629 9.5249 -3.1575 8.00078e-20 -3.54022
346 1 23.0603 11.0288 -1.35 8.63065e-11 -3.54022
347 1 22.0577 12.5328 0.4575 4.31526e-10 -3.54022
348 1 24.5642 12.0314 -3.1575 2.58915e-10 -3.54022
349 1 18.5485 -11.5301 2.265 2.5892e-10 -3.54022
350 1 21.055 -12.0314 -1.35 4.31526e-10 -3.54022
351 1 20.0524 -10.5275 0.4575 8.63067e-11 -3.54022
352 1 19.0498 -9.02358 2.265 3.00011e-20 -3.54022
353 1 22.559 -11.0288 -3.1575 8.6307e-11 -3.54022
354 1 21.5563 -9.52489 -1.35 9.99979e-20 -3.54022
355 1 20.5537 -8.02096 0.4575 2e-20 -3.54022
356 1 19.5511 -6.51703 2.265 1e-20 -3.54022
357 1 23.0603 -8.52227 -3.1575 5.9968e-20 -3.54022
358 1 22.0577 -7.01834 -1.35 5.99652e-20 -3.54022
359 1 21.055 -5.51441 0.4575 6.00181e-20 -3.54022
360 1 20.0524 -4.01048 2.265 7.00011e-20 -3.54022
361 1 23.5616 -6.01572 -3.1575 3.99787e-20 -3.54022
362 1 22.559 -4.51179 -1.35 1.20037e-19 -3.54022
363 1 21.5563 -3.00786 0.4575 8.00396e-20 -3.54022
364 1 20.5537 -1.50393 2.265 1.00004e-20 -3.54022
365 1 24.0629 -3.50917 -3.1575 5.99958e-20 -3.54022
366 1 23.0603 -2.00524 -1.35 6.00359e-20 -3.54022
367 1 22.0577 -0.501309 0.4575 5.00387e-20 -3.54022
368 1 21.055 1.00262 2.265 3.99975e-20 -3.54022
369 1 24.5642 -1.00262 -3.1575 9.99468e-21 -3.54022
370 1 23.5616 0.501311 -1.35 6.00359e-20 -3.54022
371 1 22.559 2.00524 0.4575 1.2004e-19 -3.54022
372 1 21.5563 3.50917 2.265 5.99883e-20 -3.54022
373 1 25.0655 1.50393 -3.1575 5.99936e-20 -3.54022
374 1 24.0629 3.00786 -1.35 8.00093e-20 -3.54022
375 1 23.0603 4.51179 0.4575 6.99943e-20 -3.54022
376 1 22.0577 6.01572 2.265 4.99847e-20 -3.54022
377 1 25.5668 4.01048 -3.1575 1.00007e-20 -3.54022
378 1 24.5642 5.51441 -1.35 1.00004e-20 -3.54022
379 1 23.5616 7.01835 0.4575 6.00021e-20 -3.54022
380 1 22.559 8.52228 2.265 1.19979e-19 -3.54022
381 1 26.0681 6.51704 -3.1575 1.00004e-20 -3.54022
382 1 25.0655 8.02097 -1.35 5.99908e-20 -3.54022
383 1 24.0629 9.5249 0.4575 8.00078e-20 -3.54022
384 1 23.0603 11.0288 2.265 8.63065e-11 -3.54022
385 1 26.5694 9.02359 -3.1575 5.00011e-20 -3.54022
386 1 25.5668 10.5275 -1.35 9.99965e-21 -3.54022
387 1 24.5642 12.0314 0.4575 2.58915e-10 -3.54022
388 1 27.0708 11.5301 -3.1575 8.63049e-11 -3.54022
389 1 26.0681 -13.0341 -1.35 5.17827e-10 -3.54022
390 1 21.055 -12.0314 2.265 4.31526e-10 -3.54022
391 1 23.5616 -12.5328 -1.35 5.17832e-10 -3.54022
392 1 22.559 -11.0288 0.4575 8.6307e-11 -3.54022
393 1 21.5563 -9.52489 2.265 9.99979e-20 -3.54022
394 1 25.0655 -11.5301 -3.1575 2.5892e-10 -3.54022
395 1 24.0629 -10.0262 -1.35 6.00078e-20 -3.54022
396 1 23.0603 -8.52227 0.4575 5.9968e-20 -3.54022
397 1 22.0577 -7.01834 2.265 5.99652e-20 -3.54022
398 1 25.5668 -9.02358 -3.1575 1.00004e-20 -3.54022
399 1 24.5642 -7.51965 -1.35 1.00032e-20 -3.54022
400 1 23.5616 -6.01572 0.4575 3.99787e-20 -3.54022
401 1 22.559 -4.51179 2.265 1.20037e-19 -3.54022
402 1 26.0681 -6.51703 -3.1575 1.00004e-20 -3.54022
403 1 25.0655 -5.0131 -1.35 5.00011e-20 -3.54022
404 1 24.0629 -3.50917 0.4575 5.99958e-20 -3.54022
405 1 23.0603 -2.00524 2.265 6.00359e-20 -3.54022
406 1 26.5694 -4.01048 -3.1575 6.99943e-20 -3.54022
407 1 25.5668 -2.50655 -1.35 1.00007e-20 -3.54022
408 1 24.5642 -1.00262 0.4575 9.99468e-21 -3.54022
409 1 23.5616 0.501311 2.265 6.00359e-20 -3.54022
410 1 27.0708 -1.50393 -3.1575 9.99467e-21 -3.54022
411 1 26.0681 1.1256e-06 -1.35 1.00004e-20 -3.54022
412 1 25.0655 1.50393 0.4575 5.99936e-20 -3.54022
413 1 24.0629 3.00786 2.265 8.00093e-20 -3.54022
414 1 27.5721 1.00262 -3.1575 5.99822e-20 -3.54022
415 1 26.5694 2.50655 -1.35 6.99929e-20 -3.54022
416 1 25.5668 4.01048 0.4575 1.00007e-20 -3.54022
417 1 24.5642 5.51441 2.265 1.00004e-20 -3.54022
418 1 28.0734 3.50917 -3.1575 7.99766e-20 -3.54022
419 1 27.0708 5.0131 -1.35 9.99751e-21 -3.54022
420 1 26.0681 6.51704 0.4575 1.00004e-20 -3.54022
421 1 25.0655 8.02097 2.265 5.99908e-20 -3.54022
422 1 28.5747 6.01572 -3.1575 5.99879e-20 -3.54022
423 1 27.5721 7.51966 -1.35 5.99993e-20 -3.54022
424 1 26.5694 9.02359 0.4575 5.00011e-20 -3.54022
425 1 25.5668 10.5275 2.265 9.99965e-21 -3.54022
426 1 29.076 8.52228 -3.1575 1.1998e-19 -3.54022
427 1 28.0734 10.0262 -1.35 4.00036e-20 -3.54022
428 1 27.0708 11.5301 0.4575 8.63049e-11 -3.54022
429 1 26.0681 -13.0341 2.265 5.17827e-10 -3.54022
430 1 29.5773 11.0288 -3.1575 8.63047e-11 -3.54022
431 1 28.5747 12.5328 -1.35 4.31526e-10 -3.54022
432 1 23.5616 -12.5328 2.265 5.17832e-10 -3.54022
433 1 25.0655 -11.5301 0.4575 2.5892e-10 -3.54022
434 1 24.0629 -10.0262 2.265 6.00078e-20 -3.54022
435 1 27.5721 -12.0314 -3.1575 4.31529e-10 -3.54022
436 1 26.5694 -10.5275 -1.35 8.6303e-11 -3.54022
437 1 25.5668 -9.02358 0.4575 1.00004e-20 -3.54022
438 1 24.5642 -7.51965 2.265 1.00032e-20 -3.54022
439 1 28.0734 -9.52489 -3.1575 7.9983e-20 -3.54022
440 1 27.0708 -8.02096 -1.35 1.00004e-20 -3.54022
441 1 26.0681 -6.51703 0.4575 1.00004e-20 -3.54022
442 1 25.0655 -5.0131 2.265 5.00011e-20 -3.54022
443 1 28.5747 -7.01834 -3.1575 5.99965e-20 -3.54022
444 1 27.5721 -5.51441 -1.35 6.00228e-20 -3.54022
445 1 26.5694 -4.01048 0.4575 6.99943e-20 -3.54022
446 1 25.5668 -2.50655 2.265 1.00007e-20 -3.54022
447 1 29.076 -4.51179 -3.1575 1.20026e-19 -3.54022
448 1 28.0734 -3.00786 -1.35 8.00139e-20 -3.54022
449 1 27.0708 -1.50393 0.4575 9.99467e-21 -3.54022
450 1 26.0681 1.1256e-06 2.265 1.00004e-20 -3.54022
451 1 29.5773 -2.00524 -3.1575 6.00164e-20 -3.54022
452 1 28.5747 -0.501309 -1.35 6.00107e-20 -3.54022
453 1 27.5721 1.00262 0.4575 5.99822e-20 -3.54022
454 1 26.5694 2.50655 2.265 6.99929e-20 -3.54022
455 1 30.0786 0.501312 -3.1575 4.00107e-20 -3.54022
456 1 29.076 2.00524 -1.35 1.19955e-19 -3.54022
457 1 28.0734 3.50917 0.4575 7.99766e-20 -3.54022
458 1 27.0708 5.0131 2.265 9.99751e-21 -3.54022
459 1 30.5799 3.00786 -3.1575 6.00057e-20 -3.54022
460 1 29.5773 4.51179 -1.35 5.9962e-20 -3.54022
461 1 28.5747 6.01572 0.4575 5.99879e-20 -3.54022
462 1 27.5721 7.51966 2.265 5.99993e-20 -3.54022
463 1 31.0812 5.51441 -3.1575 1.00089e-20 -3.54022
464 1 30.0786 7.01835 -1.35 8.00199e-20 -3.54022
465 1 29.076 8.52228 0.4575 1.1998e-19 -3.54022
466 1 28.0734 10.0262 2.265 4.00036e-20 -3.54022
467 1 31.5825 8.02097 -3.1575 7.00068e-20 -3.54022
468 1 30.5799 9.5249 -1.35 5.9978e-20 -3.54022
469 1 29.5773 11.0288 0.4575 8.63047e-11 -3.54022
470 1 28.5747 12.5328 2.265 4.31526e-10 -3.54022
471 1 32.0839 10.5275 -3.1575 9.99965e-21 -3.54022
472 1 31.0812 12.0314 -1.35 2.58915e-10 -3.54022
473 1 32.5852 -13.0341 -3.1575 5.17827e-10 -3.54022
474 1 27.5721 -12.0314 0.4575 4.31529e-10 -3.54022
475 1 26.5694 -10.5275 2.265 8.6303e-11 -3.54022
476 1 30.0786 -12.5328 -3.1575 5.17832e-10 -3.54022
477 1 29.076 -11.0288 -1.35 8.6307e-11 -3.54022
478 1 28.0734 -9.52489 0.4575 7.9983e-20 -3.54022
479 1 27.0708 -8.02096 2.265 1.00004e-20 -3.54022
480 1 30.5799 -10.0262 -3.1575 5.99986e-20 -3.54022
481 1 29.5773 -8.52227 -1.35 5.9956e-20 -3.54022
482 1 28.5747 -7.01834 0.4575 5.99965e-20 -3.54022
483 1 27.5721 -5.51441 2.265 6.00228e-20 -3.54022
484 1 31.0812 -7.51965 -3.1575 9.99752e-21 -3.54022
485 1 30.0786 -6.01572 -1.35 4.00068e-20 -3.54022
486 1 29.076 -4.51179 0.4575 1.20026e-19 -3.54022
487 1 28.0734 -3.00786 2.265 8.00139e-20 -3.54022
488 1 31.5825 -5.0131 -3.1575 5.00014e-20 -3.54022
489 1 30.5799 -3.50917 -1.35 5.99991e-20 -3.54022
490 1 29.5773 -2.00524 0.4575 6.00164e-20 -3.54022
491 1 28.5747 -0.501309 2.265 6.00107e-20 -3.54022
492 1 32.0839 -2.50655 -3.1575 1e-20 -3.54022
493 1 31.0812 -1.00262 -1.35 9.99751e-21 -3.54022
494 1 30.0786 0.501312 0.4575 4.00107e-20 -3.54022
495 1 29.076 2.00524 2.265 1.19955e-19 -3.54022
496 1 32.5852 1.407e-06 -3.1575 1.00004e-20 -3.54022
497 1 31.5825 1.50393 -1.35 5.00029e-20 -3.54022
498 1 30.5799 3.00786 0.4575 6.00057e-20 -3.54022
499 1 29.5773 4.51179 2.265 5.9962e-20 -3.54022
500 1 33.0865 2.50655 -3.1575 6.00004e-20 -3.54022
501 1 32.0839 4.01048 -1.35 1e-20 -3.54022
502 1 31.0812 5.51441 0.4575 1.00089e-20 -3.54022
503 1 30.0786 7.01835 2.265 8.00199e-20 -3.54022
504 1 33.5878 5.0131 -3.1575 1.00089e-20 -3.54022
505 1 32.5852 6.51704 -1.35 9.99965e-21 -3.54022
506 1 31.5825 8.02097 0.4575 7.00068e-20 -3.54022
507 1 30.5799 9.5249 2.265 5.9978e-20 -3.54022
508 1 34.0891 7.51966 -3.1575 6.001e-20 -3.54022
509 1 33.0865 9.02359 -1.35 5.00011e-20 -3.54022
510 1 32.0839 10.5275 0.4575 9.99965e-21 -3.54022
511 1 31.0812 12.0314 2.265 2.58915e-10 -3.54022
512 1 34.5904 10.0262 -3.1575 4.00377e-20 -3.54022
513 1 33.5878 11.5301 -1.35 8.63049e-11 -3.54022
514 1 32.5852 -13.0341 0.4575 5.17827e-10 -3.54022
515 1 35.0917 12.5328 -3.1575 4.31524e-10 -3.54022
516 1 30.0786 -12.5328 0.4575 5.17832e-10 -3.54022
517 1 29.076 -11.0288 2.265 8.6307e-11 -3.54022
518 1 31.5825 -11.5301 -1.35 2.5892e-10 -3.54022
519 1 30.5799 -10.0262 0.4575 5.99986e-20 -3.54022
520 1 29.5773 -8.52227 2.265 5.9956e-20 -3.54022
521 1 33.0865 -10.5275 -3.1575 8.6303e-11 -3.54022
522 1 32.0839 -9.02358 -1.35 9.99965e-21 -3.54022
523 1 31.0812 -7.51965 0.4575 9.99752e-21 -3.54022
524 1 30.0786 -6.01572 2.265 4.00068e-20 -3.54022
525 1 33.5878 -8.02096 -3.1575 9.99751e-21 -3.54022
526 1 32.5852 -6.51703 -1.35 1e-20 -3.54022
527 1 31.5825 -5.0131 0.4575 5.00014e-20 -3.54022
528 1 30.5799 -3.50917 2.265 5.99991e-20 -3.54022
529 1 34.0891 -5.51441 -3.1575 8.00053e-20 -3.54022
530 1 33.0865 -4.01048 -1.35 5.99993e-20 -3.54022
531 1 32.0839 -2.50655 0.4575 1e-20 -3.54022
532 1 31.0812 -1.00262 2.265 9.99751e-21 -3.54022
533 1 34.5904 -3.00786 -3.1575 6.001e-20 -3.54022
534 1 33.5878 -1.50393 -1.35 9.99752e-21 -3.54022
535 1 32.5852 1.407e-06 0.4575 1.00004e-20 -3.54022
536 1 31.5825 1.50393 2.265 5.00029e-20 -3.54022
537 1 35.0917 -0.501309 -3.1575 6.99901e-20 -3.54022
538 1 34.0891 1.00262 -1.35 8.00039e-20 -3.54022
539 1 33.0865 2.50655 0.4575 6.00004e-20 -3.54022
540 1 32.0839 4.01048 2.265 1e-20 -3.54022
541 1 35.593 2.00524 -3.1575 1.19908e-19 -3.54022
542 1 34.5904 3.50917 -1.35 5.99304e-20 -3.54022
543 1 33.5878 5.0131 0.4575 1.00089e-20 -3.54022
544 1 32.5852 6.51704 2.265 9.99965e-21 -3.54022
545 1 36.0943 4.51179 -3.1575 4.99364e-20 -3.54022
546 1 35.0917 6.01573 -1.35 5.99702e-20 -3.54022
547 1 34.0891 7.51966 0.4575 6.001e-20 -3.54022
548 1 33.0865 9.02359 2.265 5.00011e-20 -3.54022
549 1 36.5957 7.01835 -3.1575 7.99482e-20 -3.54022
550 1 35.593 8.52228 -1.35 1.19906e-19 -3.54022
551 1 34.5904 10.0262 0.4575 4.00377e-20 -3.54022
552 1 33.5878 11.5301 2.265 8.63049e-11 -3.54022
553 1 37.097 9.5249 -3.1575 5.99617e-20 -3.54022
554 1 36.0943 11.0288 -1.35 8.63047e-11 -3.54022
555 1 35.0917 12.5328 0.4575 4.31524e-10 -3.54022
556 1 37.5983 12.0314 -3.1575 2.58915e-10 -3.54022
557 1 31.5825 -11.5301 2.265 2.5892e-10 -3.54022
558 1 34.0891 -12.0314 -1.35 4.31533e-10 -3.54022
559 1 33.0865 -10.5275 0.4575 8.6303e-11 -3.54022
560 1 32.0839 -9.02358 2.265 9.99965e-21 -3.54022
561 1 35.593 -11.0288 -3.1575 8.63033e-11 -3.54022
562 1 34.5904 -9.52489 -1.35 6.00164e-20 -3.54022
563 1 33.5878 -8.02096 0.4575 9.99751e-21 -3.54022
564 1 32.5852 -6.51703 2.265 1e-20 -3.54022
565 1 36.0943 -8.52227 -3.1575 5.00103e-20 -3.54022
566 1 35.0917 -7.01834 -1.35 7.00196e-20 -3.54022
567 1 34.0891 -5.51441 0.4575 8.00053e-20 -3.54022
568 1 33.0865 -4.01048 2.265 5.99993e-20 -3.54022
569 1 36.5957 -6.01572 -3.1575 6.00206e-20 -3.54022
570 1 35.593 -4.51179 -1.35 1.20027e-19 -3.54022
571 1 34.5904 -3.00786 0.4575 6.001e-20 -3.54022
572 1 33.5878 -1.50393 2.265 9.99752e-21 -3.54022
573 1 37.097 -3.50917 -3.1575 3.99963e-20 -3.54022
574 1 36.0943 -2.00524 -1.35 5.00217e-20 -3.54022
575 1 35.0917 -0.501309 0.4575 6.99901e-20 -3.54022
576 1 34.0891 1.00262 2.265 8.00039e-20 -3.54022
577 1 37.5983 -1.00262 -3.1575 1.00032e-20 -3.54022
578 1 36.5957 0.501312 -1.35 6.0021e-20 -3.54022
579 1 35.593 2.00524 0.4575 1.19908e-19 -3.54022
580 1 34.5904 3.50917 2.265 5.99304e-20 -3.54022
581 1 38.0996 1.50393 -3.1575 5.99933e-20 -3.54022
582 1 37.097 3.00786 -1.35 4.00078e-20 -3.54022
583 1 36.0943 4.51179 0.4575 4.99364e-20 -3.54022
584 1 35.0917 6.01573 2.265 5.99702e-20 -3.54022
585 1 38.6009 4.01048 -3.1575 9.99895e-21 -3.54022
586 1 37.5983 5.51441 -1.35 1.00032e-20 -3.54022
587 1 36.5957 7.01835 0.4575 7.99482e-20 -3.54022
588 1 35.593 8.52228 2.265 1.19906e-19 -3.54022
589 1 39.1022 6.51704 -3.1575 9.99966e-21 -3.54022
590 1 38.0996 8.02097 -1.35 6.99869e-20 -3.54022
591 1 37.097 9.5249 0.4575 5.99617e-20 -3.54022
592 1 36.0943 11.0288 2.265 8.63047e-11 -3.54022
593 1 39.6035 9.02359 -3.1575 4.99954e-20 -3.54022
594 1 38.6009 10.5275 -1.35 1.00011e-20 -3.54022
595 1 37.5983 12.0314 0.4575 2.58915e-10 -3.54022
596 1 40.1048 11.5301 -3.1575 8.63049e-11 -3.54022
597 1 39.1022 -13.0341 -1.35 5.17827e-10 -3.54022
598 1 34.0891 -12.0314 2.265 4.31533e-10 -3.54022
599 1 36.5957 -12.5328 -1.35 5.17836e-10 -3.54022
600 1 35.593 -11.0288 0.4575 8.63033e-11 -3.54022