LAMMPS data file via write_data, version 29 Aug 2024, timestep = 547, units = metal

29248 atoms
2 atom types

-100.1 100.1 xlo xhi
-59.6201706 59.6201706 ylo yhi
-7.23 7.23 zlo zhi
0 0 0 xy xz yz

Masses

1 63.55
2 63.55

Atoms # atomic

1 1 0.6648232390729305 58.09898194660206 -6.7765006009761395 0 0 0
2 1 0.2882554825084469 52.44156271074221 -6.7765023184344395 0 0 0
3 1 1.3490338177682872 54.600522320440625 -6.776502882886639 0 0 0
4 1 0.9949399433339181 56.223927615904636 -4.969002166310693 0 0 0
5 1 0.6648232406672179 58.09898194739258 -3.1615005645275396 0 0 0
6 1 2.7717985013965603 56.72895622585522 -6.776503897450202 0 0 0
7 1 2.3596342652353997 58.48083371548834 -4.969002882568284 0 0 0
8 1 4.066938818563997 58.94997623860288 -6.776504730748299 0 0 0
9 1 0.9906227048419964 48.77053578080383 -6.776501745538255 0 0 0
10 1 0.6610220606856956 50.645774500364986 -4.969000457294584 0 0 0
11 1 0.2882554830310369 52.441562710115555 -3.1615023207780855 0 0 0
12 1 2.3555754592496783 51.027190805296335 -6.776502866270536 0 0 0
13 1 1.8901831649691445 52.87938346702655 -4.969003078119268 0 0 0
14 1 1.3490338184593327 54.60052232235173 -3.161502888480257 0 0 0
15 1 0.9949399260335383 56.22392763194866 -1.3540021697521376 0 0 0
16 1 0.6648232234409335 58.09898194115676 0.45349943960766886 0 0 0
17 1 3.611207494184896 53.2622224006599 -6.776504774146499 0 0 0
18 1 3.2026827404495606 55.008343319026686 -4.969004674565921 0 0 0
19 1 2.771798500668652 56.728956226208076 -3.161503898640851 0 0 0
20 1 2.35963426079509 58.48083371692314 -1.354002890046749 0 0 0
21 1 4.962344189171844 55.430435976906104 -6.776506248489823 0 0 0
22 1 4.529744626976552 57.184282980073355 -4.969005636610577 0 0 0
23 1 4.066938818073169 58.94997623880118 -3.1615047298243866 0 0 0
24 1 6.267040430530628 57.627527717155196 -6.776507372242378 0 0 0
25 1 5.8184789082297215 59.38450838878777 -4.9690066460600395 0 0 0
26 1 0.6572008211514344 43.1914429339158 -6.776499925428877 0 0 0
27 1 0.284734802896935 44.987607898124146 -4.9690018627263886 0 0 0
28 1 1.8861794705955646 45.424941910870224 -6.776502549921091 0 0 0
29 1 1.3445906954917746 47.14679323411196 -4.969002421369168 0 0 0
30 1 0.9906227009220743 48.770535784561794 -3.161501749784163 0 0 0
31 1 0.661022050914184 50.645774496700405 -1.354000445000486 0 0 0
32 1 0.28825548645440335 52.44156270245221 0.4534976789746529 0 0 0
33 1 3.19806074526754 47.553841061131386 -6.776504229384098 0 0 0
34 1 2.767460238584036 49.27488799926888 -4.969003665440101 0 0 0
35 1 2.3555754586973734 51.027190806116 -3.161502872083121 0 0 0
36 1 1.8901831655035863 52.87938347060858 -1.3540030745763336 0 0 0
37 1 1.3490338185821855 54.60052231506646 0.45349710963151485 0 0 0
38 1 0.9949399030179222 56.223927655939185 2.260997832948776 0 0 0
39 1 0.6648232202231128 58.09898193984193 4.068499404285927 0 0 0
40 1 4.525121051905828 49.729613763180005 -6.776505517474638 0 0 0
41 1 4.0625173552887475 51.495918657819296 -4.969004897903975 0 0 0
42 1 3.611207494084695 53.26222240072661 -3.161504772841374 0 0 0
43 1 3.202682746545335 55.00834331701386 -1.3540046739844411 0 0 0
44 1 2.771798505827107 56.7289562247688 0.4534961006135641 0 0 0
45 1 2.359634257502492 58.48083371606899 2.2609971155236894 0 0 0
46 1 5.813608342397984 51.92995796583653 -6.776506905435977 0 0 0
47 1 5.382337322863293 53.67893965859832 -4.9690066377316615 0 0 0
48 1 4.96234418964265 55.43043597679718 -3.1615062468092376 0 0 0
49 1 4.529744627875573 57.18428298072741 -1.3540056355461696 0 0 0
50 1 4.066938819799205 58.94997623911694 0.4534952695835163 0 0 0
51 1 7.143522583823199 54.110038889604304 -6.776508371121615 0 0 0
52 1 6.7107959994738735 55.86546016025465 -4.969007944094052 0 0 0
53 1 6.267040430223233 57.627527716380435 -3.161507374157939 0 0 0
54 1 5.818478908378481 59.38450838990344 -1.354006647748712 0 0 0
55 1 8.457157396510766 56.302572074922686 -6.776509544334994 0 0 0
56 1 8.016092484164716 58.06013437396039 -4.969009061716634 0 0 0
57 1 9.771147576409604 58.49149663396981 -6.7765106758588995 0 0 0
58 1 0.2811452686000564 37.53210285936108 -6.776501954913381 0 0 0
59 1 1.3392724039576933 39.6916666821458 -6.776502384906636 0 0 0
60 1 0.9855644221574806 41.316019597266425 -4.969001605779991 0 0 0
61 1 0.6572008250780215 43.19144293527727 -3.1614999368839105 0 0 0
62 1 0.28473480255077277 44.98760790741246 -1.3540018636654652 0 0 0
63 1 2.762563636002554 41.818869244577265 -6.776503438851881 0 0 0
64 1 2.351312542990115 43.571900733938996 -4.969002345517546 0 0 0
65 1 1.8861794702602737 45.42494191183879 -3.1615025489500326 0 0 0
66 1 1.3445906930770661 47.14679322896608 -1.3540024245772757 0 0 0
67 1 0.9906226832184757 48.7705358027471 0.45349825258396487 0 0 0
68 1 0.6610220446912365 50.64577449402551 2.2609995367952807 0 0 0
69 1 0.2882554861529485 52.44156270613113 4.0684976825246535 0 0 0
70 1 4.057651435163251 44.03972808621793 -6.776504416832653 0 0 0
71 1 3.606528810152298 45.80699753189406 -4.969004292147513 0 0 0
72 1 3.1980607465163047 47.553841061764665 -3.161504229631672 0 0 0
73 1 2.7674602406962094 49.27488799963334 -1.3540036651221659 0 0 0
74 1 2.3555754550368135 51.02719080556937 0.4534971286791084 0 0 0
75 1 1.8901831666101003 52.87938347013911 2.260996922146755 0 0 0
76 1 1.3490338186295077 54.60052231323112 4.068497117165322 0 0 0
77 1 0.9949399205191298 56.2239276375607 5.875997834075273 0 0 0
78 1 5.377077193068018 46.2227832529716 -6.776506244398313 0 0 0
79 1 4.957429611254042 47.97510422341562 -4.969005951363107 0 0 0
80 1 4.525121051380495 49.72961376257498 -3.1615055165720887 0 0 0
81 1 4.062517356010474 51.49591865765117 -1.3540048979009502 0 0 0
82 1 3.6112074931541116 53.262222401797366 0.4534952264173545 0 0 0
83 1 3.2026827516433514 55.00834331270601 2.260995325567784 0 0 0
84 1 2.771798506731159 56.72895622514512 4.068496102922263 0 0 0
85 1 2.3596342597597015 58.48083371696557 5.875997122999887 0 0 0
86 1 6.705393507818826 48.409312199361345 -6.776507742343789 0 0 0
87 1 6.261961681620093 50.17223557893825 -4.969007380755449 0 0 0
88 1 5.813608342404777 51.92995796475039 -3.1615069057036647 0 0 0
89 1 5.382337322891118 53.6789396594014 -1.354006638587218 0 0 0
90 1 4.96234418753879 55.43043597717274 0.45349375259492236 0 0 0
91 1 4.529744627455045 57.18428297888007 2.2609943635547713 0 0 0
92 1 4.066938819803823 58.94997623915702 4.0684952697805725 0 0 0
93 1 8.010449351454554 50.6041750687156 -6.776509207450133 0 0 0
94 1 7.574435554070234 52.35850112528623 -4.969008811529499 0 0 0
95 1 7.143522583704069 54.11003888898052 -3.161508371869638 0 0 0
96 1 6.710796001942455 55.86546016121445 -1.3540079448267817 0 0 0
97 1 6.267040430414866 57.627527717322316 0.45349262772142473 0 0 0
98 1 5.818478907947281 59.384508388850854 2.260993353906737 0 0 0
99 1 9.330916112229332 52.78960944197707 -6.776510596267738 0 0 0
100 1 8.896237520707643 54.54494514102637 -4.9690100852252295 0 0 0
101 1 8.457157396800696 56.30257207514261 -3.161509545601785 0 0 0
102 1 8.01609248162643 58.060134374048936 -1.3540090616102665 0 0 0
103 1 10.64655488306289 54.979693105999 -6.776511863225222 0 0 0
104 1 10.208068108773801 56.73638318373013 -4.969011259912529 0 0 0
105 1 9.771147576714569 58.49149663445338 -3.1615106743930697 0 0 0
106 1 11.961454889828019 57.16906475002788 -6.776513046400439 0 0 0
107 1 11.525798314036635 58.924064224488255 -4.9690122991053185 0 0 0
108 1 13.279007148543684 59.35758442156324 -6.776514258898873 0 0 0
109 1 0.9788137496509961 33.85942919706178 -6.776501448782904 0 0 0
110 1 0.6529430233528473 35.73519244431389 -4.969000076631127 0 0 0
111 1 0.2811452670486716 37.53210285880554 -3.1615019522353447 0 0 0
112 1 2.346241893797526 36.113763020450214 -6.776502443442061 0 0 0
113 1 1.881684192566695 37.968424566040305 -4.969002690578593 0 0 0
114 1 1.3392724042611661 39.691666684097946 -3.161502380774643 0 0 0
115 1 0.98556443281079 41.316019588377394 -1.3540016057535618 0 0 0
116 1 0.657200830373796 43.19144293695809 0.45350007005180587 0 0 0
117 1 0.28473480356497305 44.987607908455026 2.2609981362977902 0 0 0
118 1 3.60079101173757 38.34893627539628 -6.776504326089434 0 0 0
119 1 3.1924896511097103 40.097105770119946 -4.969004148426957 0 0 0
120 1 2.76256363479051 41.818869245181496 -3.1615034380867457 0 0 0
121 1 2.3513125442712806 43.571900734765286 -1.3540023447192557 0 0 0
122 1 1.8861794689910454 45.424941909692215 0.453497451693055 0 0 0
123 1 1.3445906937712095 47.14679322230128 2.2609975797028983 0 0 0
124 1 0.9906226860528591 48.77053579961932 4.06849825320258 0 0 0
125 1 0.6610220538349978 50.64577449766929 5.875999523275562 0 0 0
126 1 4.951459588314293 40.51670831553593 -6.776505843734222 0 0 0
127 1 4.519807101800282 42.272366871944136 -4.969005192244495 0 0 0
128 1 4.057651433556757 44.03972808783684 -3.1615044176788385 0 0 0
129 1 3.606528808094396 45.80699753341289 -1.3540042914089538 0 0 0
130 1 3.1980607521196447 47.55384105862071 0.4534957710781846 0 0 0
131 1 2.7674602439314384 49.27488799918115 2.2609963347654656 0 0 0
132 1 2.355575455864468 51.027190806249784 4.068497134990103 0 0 0
133 1 1.8901831651193532 52.87938347025412 5.875996920121928 0 0 0
134 1 6.255931067939841 42.7137663375017 -6.776506990762931 0 0 0
135 1 5.808028678162131 44.47275029770328 -4.969006465162253 0 0 0
136 1 5.377077193713944 46.22278325332487 -3.161506242918394 0 0 0
137 1 4.957429609785393 47.975104223068136 -1.3540059513148284 0 0 0
138 1 4.5251210519441685 49.72961376236159 0.453494482940999 0 0 0
139 1 4.062517356754128 51.4959186576834 2.2609951020340655 0 0 0
140 1 3.6112074929388456 53.26222240214894 4.068495226689591 0 0 0
141 1 3.2026827483269784 55.00834331635536 5.875995324277123 0 0 0
142 1 7.568118183277477 44.90019446172828 -6.776508396746042 0 0 0
143 1 7.137693943939979 46.65290520233338 -4.96900809581429 0 0 0
144 1 6.705393509007777 48.40931219947819 -3.1615077436249996 0 0 0
145 1 6.261961681677832 50.17223557749163 -1.3540073816326985 0 0 0
146 1 5.8136083424972185 51.929957965573955 0.45349309455427156 0 0 0
147 1 5.382337320781772 53.67893965975272 2.260993362195993 0 0 0
148 1 4.962344187427462 55.43043597711543 4.068493752435348 0 0 0
149 1 4.529744627887467 57.1842829805471 5.875994363535809 0 0 0
150 1 8.889746261686923 47.08685473976579 -6.7765099412723355 0 0 0
151 1 8.451148479963848 48.84561973415423 -4.969009554399336 0 0 0
152 1 8.010449352296177 50.604175068984524 -3.1615092074429008 0 0 0
153 1 7.574435552426976 52.358501124558494 -1.3540088104964132 0 0 0
154 1 7.143522584268538 54.11003888949117 0.453491628773401 0 0 0
155 1 6.71079599955803 55.86546016042754 2.2609920558062058 0 0 0
156 1 6.267040430035863 57.62752771668519 4.068492625908518 0 0 0
157 1 5.818478908486412 59.38450838968608 5.875993351859406 0 0 0
158 1 10.201373756841562 49.27863960926188 -6.776511322885143 0 0 0
159 1 9.764876277719992 51.034855870113 -4.969010929839378 0 0 0
160 1 9.330916111159652 52.78960944056066 -3.161510597051004 0 0 0
161 1 8.896237520180449 54.54494514047661 -1.3540100854625374 0 0 0
162 1 8.457157396542513 56.30257207489358 0.45349045573055574 0 0 0
163 1 8.016092484216784 58.06013437388608 2.260990938287368 0 0 0
164 1 11.518856787550007 51.46675913947032 -6.776512739107639 0 0 0
165 1 11.083625114056403 53.222871318729794 -4.969012343176228 0 0 0
166 1 10.646554882705857 54.97969310576183 -3.1615118626961736 0 0 0
167 1 10.208068108127563 56.73638318463616 -1.3540112597955083 0 0 0
168 1 9.771147576440981 58.491496633954675 0.4534893241421396 0 0 0
169 1 12.835176014496184 53.65650078209183 -6.776514114746027 0 0 0
170 1 12.398168046047843 55.41318635331978 -4.969013601049535 0 0 0
171 1 11.961454888615549 57.16906475012929 -3.1615130480248674 0 0 0
172 1 11.525798315070531 58.924064223174945 -1.3540122984854948 0 0 0
173 1 14.150849691672107 55.84621877764595 -6.77651550021291 0 0 0
174 1 13.714913177239353 57.602029294498614 -4.969014932262667 0 0 0
175 1 13.279007148666352 59.357584421351056 -3.161514258912285 0 0 0
176 1 15.467847545555912 58.03544462689687 -6.776516712061396 0 0 0
177 1 0.6474824665525887 28.27485653173428 -6.776500788520778 0 0 0
178 1 0.2771516599413246 30.073394483613676 -4.969002414876194 0 0 0
179 1 1.875871218155666 30.507707752706928 -6.776502996515297 0 0 0
180 1 1.3319268724900013 32.233791926868044 -4.969002319279765 0 0 0
181 1 0.9788137494466156 33.85942919622034 -3.1615014469301066 0 0 0
182 1 0.6529430316689115 35.73519244804347 -1.3540000922395952 0 0 0
183 1 0.2811452632105329 37.53210286689096 0.453498047548507 0 0 0
184 1 3.1846510187601353 32.63608554330133 -6.776504175003115 0 0 0
185 1 2.7561612844873906 34.359298681193884 -4.969003387974303 0 0 0
186 1 2.3462418936998404 36.11376302112853 -3.161502437856376 0 0 0
187 1 1.8816841932451212 37.96842456451831 -1.3540026913669754 0 0 0
188 1 1.3392724032278522 39.69166668508185 0.4534976158151891 0 0 0
189 1 0.985564434659608 41.31601958505626 2.2609983931706137 0 0 0
190 1 0.6572008273118399 43.19144293588234 4.068500081821196 0 0 0
191 1 0.2847348034697319 44.98760790272973 5.87599813511245 0 0 0
192 1 4.51265326990611 34.81044487366541 -6.776505201833821 0 0 0
193 1 4.051478047183124 36.57983864923073 -4.96900452692653 0 0 0
194 1 3.6007910117537136 38.34893627641588 -3.1615043265146068 0 0 0
195 1 3.192489648019091 40.09710577193142 -1.3540041490869155 0 0 0
196 1 2.7625636334118298 41.81886924532517 0.45349656150191875 0 0 0
197 1 2.3513125456051256 43.5719007336051 2.260997651948846 0 0 0
198 1 1.8861794696077254 45.42494191166232 4.068497449432701 0 0 0
199 1 1.344590693736194 47.146793231815 5.875997581462317 0 0 0
200 1 5.800583621240548 37.01095413905525 -6.7765066105813565 0 0 0
201 1 5.370343596688173 38.762923735509524 -4.969006192884543 0 0 0
202 1 4.951459590021969 40.51670831656623 -3.1615058421048894 0 0 0
203 1 4.519807100466252 42.272366872080134 -1.354005193040695 0 0 0
204 1 4.057651434415021 44.039728085826276 0.45349558302160675 0 0 0
205 1 3.6065288096210963 45.806997532911616 2.2609957078364706 0 0 0
206 1 3.19806075111093 47.55384105982677 4.068495769823328 0 0 0
207 1 2.7674602396329107 49.27488799955868 5.875996336167525 0 0 0
208 1 7.1300521290094 39.19123350622822 -6.776508027508752 0 0 0
209 1 6.698665902555021 40.94936831975287 -4.969007580180262 0 0 0
210 1 6.255931067382946 42.713766338802266 -3.161506991371205 0 0 0
211 1 5.8080286770640015 44.47275029683234 -1.3540064661914362 0 0 0
212 1 5.377077191958108 46.222783253836006 0.4534937554098964 0 0 0
213 1 4.957429609367111 47.975104223611005 2.2609940484130875 0 0 0
214 1 4.525121051448821 49.72961376209522 4.068494482845537 0 0 0
215 1 4.062517355805767 51.4959186575966 5.875995102067687 0 0 0
216 1 8.443483714441626 41.384224263220055 -6.776509329851795 0 0 0
217 1 8.003553979076898 43.14445228506353 -4.969008836440508 0 0 0
218 1 7.568118184790237 44.900194461866754 -3.1615083963882573 0 0 0
219 1 7.1376939448327335 46.652905203239975 -1.354008095256827 0 0 0
220 1 6.705393507857565 48.4093121993999 0.45349225740356014 0 0 0
221 1 6.261961681452718 50.1722355792859 2.2609926192793877 0 0 0
222 1 5.8136083425684575 51.929957964367325 4.068493094214649 0 0 0
223 1 5.3823373225869915 53.67893965962684 5.87599336204435 0 0 0
224 1 9.757071685699628 43.57391327173169 -6.7765107344754885 0 0 0
225 1 9.32382774410705 45.33020456164332 -4.969010344190237 0 0 0
226 1 8.88974626220282 47.086854739506144 -3.161509941127783 0 0 0
227 1 8.451148481167138 48.84561973453415 -1.3540095547846234 0 0 0
228 1 8.010449351425038 50.60417506875472 0.4534907925553976 0 0 0
229 1 7.57443555440797 52.35850112507827 2.260991188495573 0 0 0
230 1 7.143522584303142 54.11003888882626 4.068491628212686 0 0 0
231 1 6.710796001954776 55.86546016121951 5.875992055726993 0 0 0
232 1 11.075720949875205 45.76244680294756 -6.776512237065523 0 0 0
233 1 10.639321844901872 47.52069484970041 -4.969011729792432 0 0 0
234 1 10.201373757835455 49.27863960831734 -3.161511324425512 0 0 0
235 1 9.76487627779747 51.034855870151155 -1.3540109295198444 0 0 0
236 1 9.330916112132485 52.78960944201558 0.45348940374532437 0 0 0
237 1 8.89623752062353 54.54494514101406 2.2609899147929897 0 0 0
238 1 8.457157396861732 56.30257207508594 4.068490454340394 0 0 0
239 1 8.016092481594441 58.06013437408908 5.875990938414826 0 0 0
240 1 12.390152961172845 47.95336405700083 -6.776513625335216 0 0 0
241 1 11.954031681566818 49.7105734140384 -4.969013179861863 0 0 0
242 1 11.518856788440601 51.46675913972975 -3.1615127396506555 0 0 0
243 1 11.08362511333948 53.22287131881752 -1.3540123443084442 0 0 0
244 1 10.64655488306093 54.97969310600556 0.45348813675433647 0 0 0
245 1 10.208068108751107 56.73638318374801 2.2609887400884485 0 0 0
246 1 9.77114757670941 58.49149663445686 4.0684893255881756 0 0 0
247 1 13.70674752416474 50.142874599114954 -6.776515101619809 0 0 0
248 1 13.271366998228899 51.89966850755628 -4.969014607618643 0 0 0
249 1 12.835176014444372 53.65650078252212 -3.161514115459797 0 0 0
250 1 12.398168044984303 55.41318635392816 -1.3540136007232566 0 0 0
251 1 11.961454889825305 57.16906475003058 0.4534869535980968 0 0 0
252 1 11.525798314025096 58.92406422449323 2.260987700896247 0 0 0
253 1 15.02329134260384 52.33291014888086 -6.776516455301202 0 0 0
254 1 14.587114122775844 54.089815217172934 -4.96901597749912 0 0 0
255 1 14.150849691477816 55.84621877758051 -3.1615154988463576 0 0 0
256 1 13.71491317754743 57.602029293884435 -1.3540149337758505 0 0 0
257 1 13.279007148550306 59.357584421562244 0.453485741101495 0 0 0
258 1 16.339518887258137 54.523038666770994 -6.776517765833904 0 0 0
259 1 15.903706452638502 56.27940514475181 -4.9690173391574755 0 0 0
260 1 15.467847546209242 58.03544462659013 -3.1615167116115344 0 0 0
261 1 17.65642917966119 56.71289401148689 -6.776519189454783 0 0 0
262 1 17.220543167883093 58.469090894622134 -4.969018635604529 0 0 0
263 1 18.97330269968063 58.90285934720527 -6.776520654508011 0 0 0
264 1 0.27251936394425513 22.606551755580092 -6.776502698678668 0 0 0
265 1 1.3199932369221443 24.769432337705744 -6.776502898493309 0 0 0
266 1 0.9682766629348265 26.398247542598533 -4.969002136598214 0 0 0
267 1 0.6474824563458697 28.274856528010552 -3.161500805902016 0 0 0
268 1 0.27715165877278025 30.073394481710956 -1.3540024112401103 0 0 0
269 1 2.7461550886748256 26.89201480982853 -6.7765040500564755 0 0 0
270 1 2.339150249139877 28.649679550222153 -4.969003084083984 0 0 0
271 1 1.875871219118352 30.50770775456366 -3.1615030007210363 0 0 0
272 1 1.3319268740575865 32.2337919302336 -1.3540023171311564 0 0 0
273 1 0.9788137675514577 33.85942917898793 0.45349855280045576 0 0 0
274 1 0.6529430390962006 35.7351924500477 2.2609999238447243 0 0 0
275 1 0.28114526492889524 37.532102868093055 4.068498045013565 0 0 0
276 1 4.042133972041398 29.112307894750437 -6.7765049166028755 0 0 0
277 1 3.5925114675488032 30.88521872677905 -4.969004497765288 0 0 0
278 1 3.184651018690545 32.636085544076174 -3.1615041762302067 0 0 0
279 1 2.756161282183271 34.35929868226403 -1.3540033870111425 0 0 0
280 1 2.3462418979190147 36.113763019829996 0.4534975624735319 0 0 0
281 1 1.8816841909027886 37.96842456347387 2.260997310802583 0 0 0
282 1 1.3392724030425285 39.69166668215153 4.068497615850169 0 0 0
283 1 0.9855644248412858 41.31601959642661 5.875998393507019 0 0 0
284 1 5.360107449194359 31.295796013776062 -6.776506286680597 0 0 0
285 1 4.942890174886088 33.052533133419 -4.969005808681571 0 0 0
286 1 4.512653270032473 34.81044487368869 -3.1615052027319317 0 0 0
287 1 4.0514780457543935 36.579838647985206 -1.3540045269638479 0 0 0
288 1 3.6007910124888554 38.348936274719925 0.45349567370869737 0 0 0
289 1 3.192489648136089 40.09710577251011 2.2609958518420017 0 0 0
290 1 2.762563634506762 41.81886924578959 4.0684965609538635 0 0 0
291 1 2.3513125426247683 43.571900734929294 5.8759976512366086 0 0 0
292 1 6.688723878464373 33.4823732624319 -6.776507599031096 0 0 0
293 1 6.247496146581938 35.24959830121532 -4.969007071563776 0 0 0
294 1 5.800583620296223 37.010954139327815 -3.161506608994577 0 0 0
295 1 5.370343597172422 38.76292373486918 -1.3540061930509018 0 0 0
296 1 4.951459589269888 40.51670831534894 0.45349415627700984 0 0 0
297 1 4.5198071014897465 42.2723668722659 2.260994807954599 0 0 0
298 1 4.057651433381366 44.03972808757944 4.068495582599228 0 0 0
299 1 3.606528808085855 45.80699753327816 5.875995708446317 0 0 0
300 1 7.993630060156846 35.67810123996269 -6.776508910019243 0 0 0
301 1 7.559429579833832 37.43642497054119 -4.969008490406593 0 0 0
302 1 7.130052129437132 39.191233505824606 -3.1615080280308185 0 0 0
303 1 6.698665904229401 40.9493683216109 -1.354007579757407 0 0 0
304 1 6.255931068011236 42.7137663374289 0.4534930092448366 0 0 0
305 1 5.808028678440522 44.4727502974392 2.2609935349276022 0 0 0
306 1 5.377077192944171 46.22278325388681 4.068493757335413 0 0 0
307 1 4.957429610139911 47.975104223031586 5.875994047641907 0 0 0
308 1 9.313920633922507 37.86459346164613 -6.776510304801623 0 0 0
309 1 8.881076013757365 39.62351488049611 -4.969009740521491 0 0 0
310 1 8.443483713050895 41.384224263559155 -3.1615093304891198 0 0 0
311 1 8.003553979140833 43.144452285688864 -1.354008836284645 0 0 0
312 1 7.56811818349 44.90019446162574 0.45349160331662924 0 0 0
313 1 7.137693944405939 46.652905202176264 2.260991904200075 0 0 0
314 1 6.705393509039297 48.40931219950435 4.0684922567322905 0 0 0
315 1 6.26196168168083 50.17223557745337 5.87599261836668 0 0 0
316 1 10.629556410723609 40.05590170413388 -6.776511618143284 0 0 0
317 1 10.192695807753395 41.8159052948233 -4.969011179855911 0 0 0
318 1 9.75707168615601 43.57391327056694 -3.1615107342216793 0 0 0
319 1 9.323827743969403 45.33020456077269 -1.3540103445982818 0 0 0
320 1 8.88974626163764 47.086854739760405 0.4534900587709593 0 0 0
321 1 8.451148480037801 48.845619734099465 2.2609904455880847 0 0 0
322 1 8.010449352246184 50.60417506904795 4.068490792549752 0 0 0
323 1 7.574435552490584 52.35850112453509 5.875991189414734 0 0 0
324 1 11.94435177108437 42.246687921926714 -6.776513193052474 0 0 0
325 1 11.510141329205595 44.00471245894018 -4.969012629579374 0 0 0
326 1 11.075720950622085 45.76244680269142 -3.1615122378555314 0 0 0
327 1 10.639321843978152 47.520694847522684 -1.354011729500028 0 0 0
328 1 10.201373756841704 49.27863960925607 0.45348867711597474 0 0 0
329 1 9.764876277665365 51.034855870140426 2.2609890701554987 0 0 0
330 1 9.330916111022063 52.78960944060949 4.068489402939814 0 0 0
331 1 8.896237520165528 54.54494514047463 5.875989914429122 0 0 0
332 1 13.261768982358134 44.43671491552421 -6.776514647535086 0 0 0
333 1 12.826439421434998 46.19519295896449 -4.969014077651611 0 0 0
334 1 12.390152962138771 47.95336405502487 -3.1615136255527507 0 0 0
335 1 11.954031680453113 49.71057341342772 -1.354013181506483 0 0 0
336 1 11.518856787571337 51.46675913946532 0.45348726089260677 0 0 0
337 1 11.083625114087056 53.222871318728416 2.2609876568190144 0 0 0
338 1 10.646554882698922 54.97969310577634 4.068488137321332 0 0 0
339 1 10.208068108133276 56.73638318462833 5.87598874020411 0 0 0
340 1 14.577572596126359 46.6278148377581 -6.776515970504882 0 0 0
341 1 14.142053859068923 48.38570220014878 -4.969015494205112 0 0 0
342 1 13.706747524771615 50.142874599182726 -3.161515102271723 0 0 0
343 1 13.271366996699683 51.899668508266736 -1.3540146062678684 0 0 0
344 1 12.835176014495715 53.65650078209129 0.4534858852591807 0 0 0
345 1 12.398168046053911 55.41318635331451 2.2609863989501084 0 0 0
346 1 11.961454888617482 57.16906475012865 4.068486951980222 0 0 0
347 1 11.525798315088224 58.92406422316821 5.875987701515388 0 0 0
348 1 15.894169989670033 48.81837135152508 -6.776517336765385 0 0 0
349 1 15.458952421655724 50.57575345621307 -4.969016879560943 0 0 0
350 1 15.023291341707548 52.332910150003435 -3.1615164545084493 0 0 0
351 1 14.587114122517974 54.08981521712142 -1.3540159779330216 0 0 0
352 1 14.150849691672505 55.84621877764652 0.45348449978764327 0 0 0
353 1 13.714913177242124 57.602029294498244 2.2609850677374155 0 0 0
354 1 13.279007148665798 59.35758442135104 4.068485741090821 0 0 0
355 1 17.210958968564867 51.00902915805727 -6.776518741604259 0 0 0
356 1 16.775339265699785 52.766225175158006 -4.969018221658529 0 0 0
357 1 16.339518887783242 54.5230386669273 -3.1615177663548515 0 0 0
358 1 15.903706454213605 56.27940514466467 -1.3540173393971002 0 0 0
359 1 15.467847545555202 58.03544462689751 0.4534832879396497 0 0 0
360 1 18.52765085598874 53.19971037674107 -6.77652021977349 0 0 0
361 1 18.09209413800994 54.95645965654645 -4.969019679032326 0 0 0
362 1 17.656429180858538 56.71289401062756 -3.161519189571513 0 0 0
363 1 17.220543167824175 58.46909089634344 -1.3540186364936422 0 0 0
364 1 19.84471885616115 55.39019740083027 -6.776521810995514 0 0 0
365 1 19.40911069108887 57.14664661680714 -4.96902121398972 0 0 0
366 1 18.973302698820234 58.90285934718951 -3.1615206542798338 0 0 0
367 1 21.16189415209284 57.58064402687415 -6.776523264856561 0 0 0
368 1 20.726219367965882 59.336786064681654 -4.969022569282161 0 0 0
369 1 0.9514493977377327 18.929186381062316 -6.776502324020867 0 0 0
370 1 0.6397608284773355 20.80403432529821 -4.969000805028764 0 0 0
371 1 0.2725192959188547 22.606551733878426 -3.1615027059953356 0 0 0
372 1 2.3283579213005936 21.172305064683066 -6.776503228381013 0 0 0
373 1 1.867251665996804 23.03703573301177 -4.9690034124217 0 0 0
374 1 1.3199932404556733 24.76943236031226 -3.161502897056675 0 0 0
375 1 0.968276662508103 26.398247543224905 -1.3540021409441179 0 0 0
376 1 0.6474824656143454 28.274856531666323 0.453499172135248 0 0 0
377 1 0.2771516507116587 30.07339449055805 2.260997588301945 0 0 0
378 1 3.578505526316661 23.408579914904898 -6.77650500296196 0 0 0
379 1 3.171529839159035 25.16545921988598 -4.9690047727402185 0 0 0
380 1 2.7461550887878303 26.892014805709515 -3.1615040476214706 0 0 0
381 1 2.33915025091612 28.649679551666317 -1.354003076383137 0 0 0
382 1 1.8758712182905555 30.507707752525768 0.4534969973673081 0 0 0
383 1 1.3319268721151758 32.233791934220584 2.2609976808375807 0 0 0
384 1 0.9788137665869527 33.85942917905121 4.068498550952253 0 0 0
385 1 0.6529430313911888 35.735192447893944 5.87599993984596 0 0 0
386 1 4.928070632766747 25.575579620044543 -6.776506458087504 0 0 0
387 1 4.501049645380576 27.33854218581626 -4.969005777584208 0 0 0
388 1 4.042133973804624 29.11230789639111 -3.1615049170813716 0 0 0
389 1 3.5925114682687536 30.885218726299975 -1.3540044974357266 0 0 0
390 1 3.18465101349355 32.6360855457342 0.4534958239825453 0 0 0
391 1 2.7561612797476442 34.35929868214766 2.2609966120977587 0 0 0
392 1 2.3462418974244486 36.11376302072215 4.0684975559651155 0 0 0
393 1 1.8816841927953476 37.96842456454575 5.87599731165925 0 0 0
394 1 6.2332623124749205 27.773456300927272 -6.776507457904306 0 0 0
395 1 5.788693910923598 29.5398340980553 -4.96900675192853 0 0 0
396 1 5.360107448281795 31.295796014188916 -3.1615062859863348 0 0 0
397 1 4.942890174664356 33.0525331326723 -1.3540058080559008 0 0 0
398 1 4.512653269634768 34.81044487433076 0.45349479773159523 0 0 0
399 1 4.051478045597008 36.57983864901197 2.2609954730151105 0 0 0
400 1 3.6007910121362983 38.34893627619824 4.068495673605358 0 0 0
401 1 3.1924896504160643 40.09710577092917 5.875995851700139 0 0 0
402 1 7.545165727821015 29.961851194232146 -6.776508626183121 0 0 0
403 1 7.118120584602508 31.720853430535293 -4.969008035823764 0 0 0
404 1 6.688723878921337 33.48237326186125 -3.1615075991810646 0 0 0
405 1 6.2474961455694284 35.249598299327936 -1.3540070726738114 0 0 0
406 1 5.8005836212474975 37.010954139233625 0.453493389258314 0 0 0
407 1 5.370343597317387 38.762923735332514 2.2609938070196014 0 0 0
408 1 4.9514595901749345 40.516708316491695 4.068494158309427 0 0 0
409 1 4.519807100514214 42.27236687176556 5.875994807197759 0 0 0
410 1 8.867378392379024 32.15045219454401 -6.776509842551303 0 0 0
411 1 8.431922869337527 33.91478252813574 -4.969009392283463 0 0 0
412 1 7.993630060267151 35.6781012393892 -3.1615089096468507 0 0 0
413 1 7.559429579536683 37.43642497089751 -1.3540084906403462 0 0 0
414 1 7.130052128742193 39.19123350628882 0.4534919725034826 0 0 0
415 1 6.698665902528376 40.94936831965922 2.2609924197014566 0 0 0
416 1 6.255931067407531 42.71376633882499 4.068493008574513 0 0 0
417 1 5.808028677002923 44.472750296889494 5.875993534040383 0 0 0
418 1 10.179539497835947 34.34450780604896 -6.776511122795034 0 0 0
419 1 9.74569208607457 36.1056259861164 -4.969010721654866 0 0 0
420 1 9.313920634301425 37.86459346090876 -3.1615103048067414 0 0 0
421 1 8.881076011557084 39.62351488014334 -1.3540097407686678 0 0 0
422 1 8.443483714427757 41.38422426323465 0.4534906701378706 0 0 0
423 1 8.003553979013247 43.14445228514764 2.2609911635566737 0 0 0
424 1 7.56811818492838 44.900194461786974 4.068491603508124 0 0 0
425 1 7.137693944750183 46.652905203270784 5.875991904821947 0 0 0
426 1 11.497466509018707 36.534952469483464 -6.776512476142713 0 0 0
427 1 11.064623173303815 38.295313900456755 -4.9690120519938334 0 0 0
428 1 10.629556410068162 40.05590170466933 -3.161511617830206 0 0 0
429 1 10.192695807742354 41.81590529368298 -1.3540111792426932 0 0 0
430 1 9.757071685667043 43.57391327174664 0.4534892655123204 0 0 0
431 1 9.323827743984936 45.33020456167602 2.260989655806319 0 0 0
432 1 8.8897462621685 47.0868547395064 4.0684900588122535 0 0 0
433 1 8.451148481159976 48.84561973453497 5.875990445173524 0 0 0
434 1 12.814265598302526 38.726997479537054 -6.776513936584172 0 0 0
435 1 12.379327445874665 40.487420839310595 -4.969013533455877 0 0 0
436 1 11.944351770826273 42.246687921362 -3.1615131932547222 0 0 0
437 1 11.510141330159541 44.004712457941984 -1.354012630094322 0 0 0
438 1 11.07572094989527 45.762446802945654 0.4534877629251247 0 0 0
439 1 10.639321844892606 47.52069484972021 2.2609882702102904 0 0 0
440 1 10.201373757842035 49.27863960830512 4.0684886755711664 0 0 0
441 1 9.764876277789341 51.03485587015566 5.875989070505514 0 0 0