#LAMMPS data file
29248 atoms
2 atom types
-125.2250000000 125.2250000000 xlo xhi
-59.6201706000 59.6201706000 ylo yhi
-7.2300000000 7.2300000000 zlo zhi
0.0 0.0 0.0 xy xz yz

Atoms # atomic

1 1 0.666140 58.083329 -6.778486
2 1 0.286784 52.426277 -6.778488
3 1 1.339584 54.585515 -6.778488
4 1 0.986066 56.210509 -4.970987
5 1 0.666140 58.083329 -3.163486
6 1 2.767393 56.704383 -6.778489
7 1 2.359335 58.458037 -4.970988
8 1 4.064770 58.920395 -6.778489
9 1 0.973848 48.754200 -6.778488
10 1 0.655945 50.627755 -4.970986
11 1 0.286784 52.426277 -3.163488
12 1 2.348218 51.000805 -6.778488
13 1 1.885231 52.858080 -4.970989
14 1 1.339584 54.585515 -3.163488
15 1 0.986066 56.210509 -1.355987
16 1 0.666140 58.083329 0.451514
17 1 3.601915 53.233181 -6.778490
18 1 3.193687 54.983114 -4.970989
19 1 2.767393 56.704383 -3.163489
20 1 2.359335 58.458037 -1.355988
21 1 4.954438 55.395189 -6.778491
22 1 4.525328 57.151672 -4.970990
23 1 4.064770 58.920395 -3.163489
24 1 6.261271 57.587115 -6.778491
25 1 5.814477 59.347615 -4.970991
26 1 0.645054 43.166927 -6.778487
27 1 0.277419 44.967270 -4.970989
28 1 1.873925 45.397099 -6.778489
29 1 1.326769 47.127628 -4.970988
30 1 0.973848 48.754200 -3.163488
31 1 0.655945 50.627755 -1.355986
32 1 0.286784 52.426277 0.451512
33 1 3.180061 47.522216 -6.778490
34 1 2.755052 49.245394 -4.970989
35 1 2.348218 51.000805 -3.163488
36 1 1.885231 52.858080 -1.355989
37 1 1.339584 54.585515 0.451512
38 1 0.986066 56.210509 2.259013
39 1 0.666140 58.083329 4.066514
40 1 4.511894 49.690391 -6.778491
41 1 4.052309 51.461572 -4.970990
42 1 3.601915 53.233181 -3.163490
43 1 3.193687 54.983114 -1.355989
44 1 2.767393 56.704383 0.451511
45 1 2.359335 58.458037 2.259012
46 1 5.800352 51.886999 -6.778492
47 1 5.371093 53.640633 -4.970991
48 1 4.954438 55.395189 -3.163491
49 1 4.525328 57.151672 -1.355990
50 1 4.064770 58.920395 0.451511
51 1 7.131381 54.062256 -6.778492
52 1 6.702157 55.821460 -4.970992
53 1 6.261271 57.587115 -3.163491
54 1 5.814477 59.347615 -1.355991
55 1 8.447053 56.250229 -6.778493
56 1 8.008763 58.011781 -4.970993
57 1 9.762585 58.435016 -6.778494
58 1 0.267791 37.499315 -6.778489
59 1 1.309749 39.662504 -6.778489
60 1 0.957940 41.292561 -4.970988
61 1 0.645054 43.166927 -3.163487
62 1 0.277419 44.967270 -1.355989
63 1 2.739587 41.777427 -6.778490
64 1 2.335642 43.536253 -4.970989
65 1 1.873925 45.397099 -3.163489
66 1 1.326769 47.127628 -1.355988
67 1 0.973848 48.754200 0.451512
68 1 0.655945 50.627755 2.259014
69 1 0.286784 52.426277 4.066512
70 1 4.037264 43.993429 -6.778491
71 1 3.587924 45.769216 -4.970990
72 1 3.180061 47.522216 -3.163490
73 1 2.755052 49.245394 -1.355989
74 1 2.348218 51.000805 0.451512
75 1 1.885231 52.858080 2.259011
76 1 1.339584 54.585515 4.066512
77 1 0.986066 56.210509 5.874013
78 1 5.354736 46.173175 -6.778492
79 1 4.939666 47.931198 -4.970991
80 1 4.511894 49.690391 -3.163491
81 1 4.052309 51.461572 -1.355990
82 1 3.601915 53.233181 0.451510
83 1 3.193687 54.983114 2.259011
84 1 2.767393 56.704383 4.066511
85 1 2.359335 58.458037 5.874012
86 1 6.685547 48.354547 -6.778492
87 1 6.246154 50.123601 -4.970992
88 1 5.800352 51.886999 -3.163492
89 1 5.371093 53.640633 -1.355991
90 1 4.954438 55.395189 0.451509
91 1 4.525328 57.151672 2.259010
92 1 4.064770 58.920395 4.066511
93 1 7.991615 50.546025 -6.778493
94 1 7.558899 52.306147 -4.970993
95 1 7.131381 54.062256 -3.163492
96 1 6.702157 55.821460 -1.355992
97 1 6.261271 57.587115 0.451509
98 1 5.814477 59.347615 2.259009
99 1 9.313461 52.727872 -6.778494
100 1 8.882688 54.488203 -4.970994
101 1 8.447053 56.250229 -3.163493
102 1 8.008763 58.011781 -1.355993
103 1 10.631240 54.914403 -6.778495
104 1 10.196342 56.675818 -4.970995
105 1 9.762585 58.435016 -3.163494
106 1 11.948257 57.100423 -6.778496
107 1 11.516231 58.859557 -4.970996
108 1 13.268518 59.285368 -6.778497
109 1 0.936916 33.824434 -6.778489
110 1 0.632223 35.694932 -4.970988
111 1 0.267791 37.499315 -3.163489
112 1 2.320284 36.058364 -6.778490
113 1 1.860324 37.925299 -4.970990
114 1 1.309749 39.662504 -3.163489
115 1 0.957940 41.292561 -1.355988
116 1 0.645054 43.166927 0.451513
117 1 0.277419 44.967270 2.259011
118 1 3.568878 38.291482 -6.778491
119 1 3.161524 40.050639 -4.970990
120 1 2.739587 41.777427 -3.163490
121 1 2.335642 43.536253 -1.355989
122 1 1.873925 45.397099 0.451511
123 1 1.326769 47.127628 2.259012
124 1 0.973848 48.754200 4.066512
125 1 0.655945 50.627755 5.874014
126 1 4.919198 40.452895 -6.778492
127 1 4.494583 42.217499 -4.970991
128 1 4.037264 43.993429 -3.163491
129 1 3.587924 45.769216 -1.355990
130 1 3.180061 47.522216 0.451510
131 1 2.755052 49.245394 2.259011
132 1 2.348218 51.000805 4.066512
133 1 1.885231 52.858080 5.874011
134 1 6.225809 42.646019 -6.778493
135 1 5.782368 44.415014 -4.970992
136 1 5.354736 46.173175 -3.163492
137 1 4.939666 47.931198 -1.355991
138 1 4.511894 49.690391 0.451509
139 1 4.052309 51.461572 2.259010
140 1 3.601915 53.233181 4.066510
141 1 3.193687 54.983114 5.874011
142 1 7.537969 44.830302 -6.778494
143 1 7.112797 46.591324 -4.970993
144 1 6.685547 48.354547 -3.163492
145 1 6.246154 50.123601 -1.355992
146 1 5.800352 51.886999 0.451508
147 1 5.371093 53.640633 2.259009
148 1 4.954438 55.395189 4.066509
149 1 4.525328 57.151672 5.874010
150 1 8.861698 47.014214 -6.778494
151 1 8.428254 48.780663 -4.970994
152 1 7.991615 50.546025 -3.163493
153 1 7.558899 52.306147 -1.355993
154 1 7.131381 54.062256 0.451508
155 1 6.702157 55.821460 2.259008
156 1 6.261271 57.587115 4.066509
157 1 5.814477 59.347615 5.874009
158 1 10.175235 49.203995 -6.778495
159 1 9.743280 50.967199 -4.970995
160 1 9.313461 52.727872 -3.163494
161 1 8.882688 54.488203 -1.355994
162 1 8.447053 56.250229 0.451507
163 1 8.008763 58.011781 2.259007
164 1 11.494801 51.390064 -6.778496
165 1 11.064172 53.152241 -4.970996
166 1 10.631240 54.914403 -3.163495
167 1 10.196342 56.675818 -1.355995
168 1 9.762585 58.435016 0.451506
169 1 12.813731 53.577628 -6.778497
170 1 12.381062 55.339741 -4.970996
171 1 11.948257 57.100423 -3.163496
172 1 11.516231 58.859557 -1.355996
173 1 14.132168 55.765122 -6.778498
174 1 13.700451 57.525658 -4.970997
175 1 13.268518 59.285368 -3.163497
176 1 15.452346 57.951868 -6.778498
177 2 0.619932 28.202503 -6.778488
178 1 0.269032 30.030731 -4.970989
179 1 1.844759 30.417243 -6.778490
180 1 1.296279 32.189577 -4.970989
181 1 0.936916 33.824434 -3.163489
182 1 0.632223 35.694932 -1.355988
183 1 0.267791 37.499315 0.451511
184 1 3.129753 32.544722 -6.778491
185 1 2.719809 34.291944 -4.970990
186 1 2.320284 36.058364 -3.163490
187 1 1.860324 37.925299 -1.355990
188 1 1.309749 39.662504 0.451511
189 1 0.957940 41.292561 2.259012
190 1 0.645054 43.166927 4.066513
191 1 0.277419 44.967270 5.874011
192 1 4.464907 34.713034 -6.778492
193 1 4.015869 36.505673 -4.970991
194 1 3.568878 38.291482 -3.163491
195 1 3.161524 40.050639 -1.355990
196 1 2.739587 41.777427 0.451510
197 1 2.335642 43.536253 2.259011
198 1 1.873925 45.397099 4.066511
199 1 1.326769 47.127628 5.874012
200 1 5.752449 36.916299 -6.778492
201 1 5.330272 38.686962 -4.970992
202 1 4.919198 40.452895 -3.163492
203 1 4.494583 42.217499 -1.355991
204 1 4.037264 43.993429 0.451509
205 1 3.587924 45.769216 2.259010
206 1 3.180061 47.522216 4.066510
207 1 2.755052 49.245394 5.874011
208 1 7.083281 39.097487 -6.778494
209 1 6.661463 40.869898 -4.970993
210 1 6.225809 42.646019 -3.163493
211 1 5.782368 44.415014 -1.355992
212 1 5.354736 46.173175 0.451508
213 1 4.939666 47.931198 2.259009
214 1 4.511894 49.690391 4.066509
215 1 4.052309 51.461572 5.874010
216 1 8.400252 41.291281 -6.778494
217 1 7.967732 43.064061 -4.970994
218 1 7.537969 44.830302 -3.163494
219 1 7.112797 46.591324 -1.355993
220 1 6.685547 48.354547 0.451508
221 1 6.246154 50.123601 2.259008
222 1 5.800352 51.886999 4.066508
223 1 5.371093 53.640633 5.874009
224 1 9.716211 43.482113 -6.778495
225 1 9.289724 45.248730 -4.970995
226 1 8.861698 47.014214 -3.163494
227 1 8.428254 48.780663 -1.355994
228 1 7.991615 50.546025 0.451507
229 1 7.558899 52.306147 2.259007
230 1 7.131381 54.062256 4.066508
231 1 6.702157 55.821460 5.874008
232 1 11.037997 45.671024 -6.778496
233 1 10.607845 47.438088 -4.970996
234 1 10.175235 49.203995 -3.163495
235 1 9.743280 50.967199 -1.355995
236 1 9.313461 52.727872 0.451506
237 1 8.882688 54.488203 2.259006
238 1 8.447053 56.250229 4.066507
239 1 8.008763 58.011781 5.874007
240 1 12.355566 47.862138 -6.778497
241 1 11.924963 49.626988 -4.970997
242 1 11.494801 51.390064 -3.163496
243 1 11.064172 53.152241 -1.355996
244 1 10.631240 54.914403 0.451505
245 1 10.196342 56.675818 2.259005
246 1 9.762585 58.435016 4.066506
247 1 13.675300 50.051470 -6.778498
248 1 13.245117 51.814789 -4.970997
249 1 12.813731 53.577628 -3.163497
250 1 12.381062 55.339741 -1.355996
251 1 11.948257 57.100423 0.451504
252 1 11.516231 58.859557 2.259004
253 1 14.995237 52.240909 -6.778499
254 1 14.563912 54.003468 -4.970998
255 1 14.132168 55.765122 -3.163498
256 1 13.700451 57.525658 -1.355997
257 1 13.268518 59.285368 0.451503
258 1 16.314984 54.430103 -6.778499
259 1 15.883787 56.191324 -4.970999
260 1 15.452346 57.951868 -3.163498
261 1 17.635680 56.618618 -6.778500
262 1 17.204290 58.378948 -4.971000
263 1 18.956664 58.806852 -6.778501
264 2 -0.373293 22.582080 -4.970986
265 2 0.766449 24.258885 -6.778489
266 2 0.792862 26.157075 -4.970988
267 2 0.619932 28.202503 -3.163488
268 1 0.269033 30.030730 -1.355989
269 1 2.556750 26.631353 -6.778491
270 1 2.258179 28.471938 -4.970990
271 1 1.844759 30.417243 -3.163490
272 1 1.296279 32.189577 -1.355989
273 1 0.936916 33.824434 0.451511
274 1 0.632223 35.694932 2.259012
275 1 0.267791 37.499315 4.066511
276 1 3.932953 28.914662 -6.778491
277 1 3.521121 30.742745 -4.970991
278 1 3.129753 32.544722 -3.163491
279 1 2.719809 34.291944 -1.355990
280 1 2.320284 36.058364 0.451510
281 1 1.860324 37.925299 2.259010
282 1 1.309749 39.662504 4.066511
283 1 0.957940 41.292561 5.874012
284 1 5.266733 31.134468 -6.778492
285 1 4.873994 32.924432 -4.970992
286 1 4.464907 34.713034 -3.163492
287 1 4.015869 36.505673 -1.355991
288 1 3.568878 38.291482 0.451509
289 1 3.161524 40.050639 2.259010
290 1 2.739587 41.777427 4.066510
291 1 2.335642 43.536253 5.874011
292 1 6.610453 33.339255 -6.778493
293 1 6.186667 35.130832 -4.970993
294 1 5.752449 36.916299 -3.163492
295 1 5.330272 38.686962 -1.355992
296 1 4.919198 40.452895 0.451508
297 1 4.494583 42.217499 2.259009
298 1 4.037264 43.993429 4.066509
299 1 3.587924 45.769216 5.874010
300 1 7.924064 35.548375 -6.778494
301 1 7.501598 37.325252 -4.970994
302 1 7.083281 39.097487 -3.163494
303 1 6.661463 40.869898 -1.355993
304 1 6.225809 42.646019 0.451507
305 1 5.782368 44.415014 2.259008
306 1 5.354736 46.173175 4.066508
307 1 4.939666 47.931198 5.874009
308 1 9.250774 37.743639 -6.778495
309 1 8.828360 39.516598 -4.970995
310 1 8.400252 41.291281 -3.163494
311 1 7.967732 43.064061 -1.355994
312 1 7.537969 44.830302 0.451506
313 1 7.112797 46.591324 2.259007
314 1 6.685547 48.354547 4.066508
315 1 6.246154 50.123601 5.874008
316 1 10.572745 39.940954 -6.778496
317 1 10.144252 41.712548 -4.970996
318 1 9.716211 43.482113 -3.163495
319 1 9.289724 45.248730 -1.355995
320 1 8.861698 47.014214 0.451506
321 1 8.428254 48.780663 2.259006
322 1 7.991615 50.546025 4.066507
323 1 7.558899 52.306147 5.874007
324 1 11.892559 42.136302 -6.778497
325 1 11.465503 43.903832 -4.970997
326 1 11.037997 45.671024 -3.163496
327 1 10.607845 47.438088 -1.355996
328 1 10.175235 49.203995 0.451505
329 1 9.743280 50.967199 2.259005
330 1 9.313461 52.727872 4.066506
331 1 8.882688 54.488203 5.874006
332 1 13.214727 44.329454 -6.778498
333 1 12.785780 46.095898 -4.970997
334 1 12.355566 47.862138 -3.163497
335 1 11.924963 49.626988 -1.355997
336 1 11.494801 51.390064 0.451504
337 1 11.064172 53.152241 2.259004
338 1 10.631240 54.914403 4.066505
339 1 10.196342 56.675818 5.874005
340 1 14.534988 46.522745 -6.778499
341 1 14.105116 48.287437 -4.970998
342 1 13.675300 50.051470 -3.163498
343 1 13.245117 51.814789 -1.355997
344 1 12.813731 53.577628 0.451503
345 1 12.381062 55.339741 2.259004
346 1 11.948257 57.100423 4.066504
347 1 11.516231 58.859557 5.874004
348 1 15.855809 48.714706 -6.778500
349 1 15.425788 50.477887 -4.970999
350 1 14.995237 52.240909 -3.163499
351 1 14.563912 54.003468 -1.355998
352 1 14.132168 55.765122 0.451502
353 1 13.700451 57.525658 2.259003
354 1 13.268518 59.285368 4.066503
355 1 17.176810 50.906071 -6.778500
356 1 16.746030 52.668248 -4.971000
357 1 16.314984 54.430103 -3.163499
358 1 15.883787 56.191324 -1.355999
359 1 15.452346 57.951868 0.451502
360 1 18.497728 53.096881 -6.778501
361 1 18.066759 54.857892 -4.971001
362 1 17.635680 56.618618 -3.163500
363 1 17.204290 58.378948 -1.356000
364 1 19.819151 55.286949 -6.778502
365 1 19.387993 57.047014 -4.971001
366 1 18.956664 58.806852 -3.163501
367 1 21.140901 57.476471 -6.778503
368 1 20.709620 59.235640 -4.971002
369 2 0.845685 18.637004 -6.778489
370 2 0.826718 20.466929 -4.970989
371 2 -0.373293 22.582080 -1.355986
372 1 2.339633 20.949052 -6.778491
373 1 1.954642 22.743174 -4.970992
374 2 0.766449 24.258885 -3.163489
375 2 0.792862 26.157075 -1.355988
376 2 0.619932 28.202503 0.451512
377 1 0.269032 30.030730 2.259011
378 1 3.543128 23.218929 -6.778492
379 1 2.994007 24.950447 -4.970992
380 1 2.556750 26.631353 -3.163491
381 1 2.258179 28.471938 -1.355990
382 1 1.844759 30.417243 0.451510
383 1 1.296279 32.189577 2.259011
384 1 0.936916 33.824434 4.066511
385 1 0.632223 35.694932 5.874012
386 1 4.802859 25.400475 -6.778493
387 1 4.366861 27.131458 -4.970992
388 1 3.932953 28.914662 -3.163491
389 1 3.521121 30.742745 -1.355991
390 1 3.129753 32.544722 0.451509
391 1 2.719809 34.291944 2.259010
392 1 2.320284 36.058364 4.066510
393 1 1.860324 37.925299 5.874010
394 1 6.124137 27.597792 -6.778494
395 1 5.680646 29.359619 -4.970993
396 1 5.266733 31.134468 -3.163492
397 1 4.873994 32.924432 -1.355992
398 1 4.464907 34.713034 0.451508
399 1 4.015869 36.505673 2.259009
400 1 3.568878 38.291482 4.066509
401 1 3.161524 40.050639 5.874010
402 1 7.446089 29.799510 -6.778494
403 1 7.024518 31.561702 -4.970994
404 1 6.610453 33.339255 -3.163493
405 1 6.186667 35.130832 -1.355993
406 1 5.752449 36.916299 0.451508
407 1 5.330272 38.686962 2.259008
408 1 4.919198 40.452895 4.066508
409 1 4.494583 42.217499 5.874009
410 1 8.779332 32.000091 -6.778495
411 1 8.351191 33.770561 -4.970995
412 1 7.924064 35.548375 -3.163494
413 1 7.501598 37.325252 -1.355994
414 1 7.083281 39.097487 0.451506
415 1 6.661463 40.869898 2.259007
416 1 6.225809 42.646019 4.066507
417 1 5.782368 44.415014 5.874008
418 1 10.100591 34.204778 -6.778496
419 1 9.673215 35.972886 -4.970996
420 1 9.250774 37.743639 -3.163495
421 1 8.828360 39.516598 -1.355995
422 1 8.400252 41.291281 0.451506
423 1 7.967732 43.064061 2.259006
424 1 7.537969 44.830302 4.066506
425 1 7.112797 46.591324 5.874007
426 1 11.426006 36.403632 -6.778497
427 1 10.999621 38.170503 -4.970997
428 1 10.572745 39.940954 -3.163496
429 1 10.144252 41.712548 -1.355996
430 1 9.716211 43.482113 0.451505
431 1 9.289724 45.248730 2.259005
432 1 8.861698 47.014214 4.066506
433 1 8.428254 48.780663 5.874006
434 1 12.749756 38.602060 -6.778498
435 1 12.320672 40.368591 -4.970997
436 1 11.892559 42.136302 -3.163497
437 1 11.465503 43.903832 -1.355997
438 1 11.037997 45.671024 0.451504
439 1 10.607845 47.438088 2.259004
440 1 10.175235 49.203995 4.066505
441 1 9.743280 50.967199 5.874005
442 1 14.071758 40.799085 -6.778499
443 1 13.642936 42.563711 -4.970998
444 1 13.214727 44.329454 -3.163498
445 1 12.785780 46.095898 -1.355997
446 1 12.355566 47.862138 0.451503
447 1 11.924963 49.626988 2.259003
448 1 11.494801 51.390064 4.066504
449 1 11.064172 53.152241 5.874004
450 1 15.394465 42.994306 -6.778500
451 1 14.964768 44.758071 -4.970999
452 1 14.534988 46.522745 -3.163499
453 1 14.105116 48.287437 -1.355998
454 1 13.675300 50.051470 0.451502
455 1 13.245117 51.814789 2.259003
456 1 12.813731 53.577628 4.066503
457 1 12.381062 55.339741 5.874004
458 1 16.716214 45.188893 -6.778500
459 1 16.285837 46.951585 -4.971000
460 1 15.855809 48.714706 -3.163500
461 1 15.425788 50.477887 -1.355999
462 1 14.995237 52.240909 0.451501
463 1 14.563912 54.003468 2.259002
464 1 14.132168 55.765122 4.066502
465 1 13.700451 57.525658 5.874003
466 1 18.037958 47.382360 -6.778501
467 1 17.607354 49.143990 -4.971001
468 1 17.176810 50.906071 -3.163500
469 1 16.746030 52.668248 -1.356000
470 1 16.314984 54.430103 0.451501
471 1 15.883787 56.191324 2.259001
472 1 15.452346 57.951868 4.066502
473 1 19.359762 49.575001 -6.778502
474 1 18.928704 51.335806 -4.971001
475 1 18.497728 53.096881 -3.163501
476 1 18.066759 54.857892 -1.356001
477 1 17.635680 56.618618 0.451500
478 1 17.204290 58.378948 2.259000
479 1 20.681527 51.766930 -6.778503
480 1 20.250271 53.526853 -4.971002
481 1 19.819151 55.286949 -3.163502
482 1 19.387993 57.047014 -1.356001
483 1 18.956664 58.806852 0.451499
484 1 22.003576 53.958088 -6.778503
485 1 21.572192 55.717216 -4.971003
486 1 21.140901 57.476471 -3.163503
487 1 20.709620 59.235640 -1.356002
488 1 23.325916 56.148582 -6.778504
489 1 22.894466 57.906954 -4.971004
490 1 24.648670 58.338409 -6.778505
491 2 0.852289 13.008815 -6.778490
492 2 -0.338095 15.145518 -3.163486
493 1 1.995218 15.249764 -6.778493
494 2 0.789161 16.779382 -4.970990
495 2 0.845685 18.637004 -3.163489
496 2 0.826719 20.466929 -1.355989
497 2 -0.373293 22.582080 2.259014
498 1 3.079747 17.414984 -6.778493
499 1 2.723970 19.043149 -4.970993
500 1 2.339633 20.949052 -3.163491
501 1 1.954642 22.743174 -1.355992
502 2 0.766449 24.258885 0.451511
503 2 0.792862 26.157075 2.259012
504 2 0.619932 28.202503 4.066512
505 1 0.269033 30.030731 5.874011
506 1 4.463989 19.596742 -6.778494
507 1 4.030184 21.356619 -4.970993
508 1 3.543128 23.218929 -3.163492
509 1 2.994007 24.950447 -1.355992
510 1 2.556750 26.631353 0.451509
511 1 2.258179 28.471938 2.259010
512 1 1.844759 30.417243 4.066510
513 1 1.296279 32.189577 5.874011
514 1 5.723386 21.855708 -6.778494
515 1 5.250963 23.633267 -4.970994
516 1 4.802859 25.400475 -3.163493
517 1 4.366861 27.131458 -1.355992
518 1 3.932953 28.914662 0.451509
519 1 3.521121 30.742745 2.259009
520 1 3.129753 32.544722 4.066509
521 1 2.719809 34.291944 5.874010
522 1 7.004987 24.076190 -6.778495
523 1 6.566607 25.835367 -4.970994
524 1 6.124137 27.597792 -3.163494
525 1 5.680646 29.359619 -1.355993
526 1 5.266733 31.134468 0.451508
527 1 4.873994 32.924432 2.259008
528 1 4.464907 34.713034 4.066508
529 1 4.015869 36.505673 5.874009
530 1 8.321006 26.280582 -6.778496
531 1 7.880103 28.040889 -4.970995
532 1 7.446089 29.799510 -3.163494
533 1 7.024518 31.561702 -1.355994
534 1 6.610453 33.339255 0.451507
535 1 6.186667 35.130832 2.259007
536 1 5.752449 36.916299 4.066508
537 1 5.330272 38.686962 5.874008
538 1 9.640053 28.481143 -6.778496
539 1 9.207895 30.238589 -4.970996
540 1 8.779332 32.000091 -3.163495
541 1 8.351191 33.770561 -1.355995
542 1 7.924064 35.548375 0.451506
543 1 7.501598 37.325252 2.259006
544 1 7.083281 39.097487 4.066506
545 1 6.661463 40.869898 5.874007
546 1 10.965638 30.679451 -6.778497
547 1 10.532412 32.440111 -4.970997
548 1 10.100591 34.204778 -3.163496
549 1 9.673215 35.972886 -1.355996
550 1 9.250774 37.743639 0.451505
551 1 8.828360 39.516598 2.259005
552 1 8.400252 41.291281 4.066506
553 1 7.967732 43.064061 5.874006
554 1 12.287177 32.879585 -6.778498
555 1 11.854812 34.640343 -4.970997
556 1 11.426006 36.403632 -3.163497
557 1 10.999621 38.170503 -1.355997
558 1 10.572745 39.940954 0.451504
559 1 10.144252 41.712548 2.259004
560 1 9.716211 43.482113 4.066505
561 1 9.289724 45.248730 5.874005
562 1 13.610471 35.077456 -6.778499
563 1 13.179502 36.838237 -4.970998
564 1 12.749756 38.602060 -3.163498
565 1 12.320672 40.368591 -1.355997
566 1 11.892559 42.136302 0.451503
567 1 11.465503 43.903832 2.259003
568 1 11.037997 45.671024 4.066504
569 1 10.607845 47.438088 5.874004
570 1 14.933609 37.274796 -6.778500
571 1 14.501999 39.035958 -4.970999
572 1 14.071758 40.799085 -3.163499
573 1 13.642936 42.563711 -1.355998
574 1 13.214727 44.329454 0.451502
575 1 12.785780 46.095898 2.259003
576 1 12.355566 47.862138 4.066503
577 1 11.924963 49.626988 5.874003
578 1 16.255928 39.471369 -6.778501
579 1 15.824631 41.232021 -4.971000
580 1 15.394465 42.994306 -3.163500
581 1 14.964768 44.758071 -1.355999
582 1 14.534988 46.522745 0.451501
583 1 14.105116 48.287437 2.259002
584 1 13.675300 50.051470 4.066502
585 1 13.245117 51.814789 5.874003
586 1 17.578514 41.666795 -6.778501
587 1 17.147054 43.427155 -4.971001
588 1 16.716214 45.188893 -3.163500
589 1 16.285837 46.951585 -1.356000
590 1 15.855809 48.714706 0.451500
591 1 15.425788 50.477887 2.259001
592 1 14.995237 52.240909 4.066501
593 1 14.563912 54.003468 5.874002
594 1 18.900696 43.861545 -6.778502
595 1 18.468996 45.621458 -4.971002
596 1 18.037958 47.382360 -3.163501
597 1 17.607354 49.143990 -1.356001
598 1 17.176810 50.906071 0.451500
599 1 16.746030 52.668248 2.259000
600 1 16.314984 54.430103 4.066501
601 1 15.883787 56.191324 5.874001
602 1 20.222812 46.055435 -6.778503
603 1 19.791054 47.814798 -4.971002
604 1 19.359762 49.575001 -3.163502
605 1 18.928704 51.335806 -1.356001
606 1 18.497728 53.096881 0.451499
607 1 18.066759 54.857892 2.258999
608 1 17.635680 56.618618 4.066500
609 1 17.204290 58.378948 5.874000
610 1 21.544976 48.248557 -6.778503
611 1 21.113057 50.007419 -4.971003
612 1 20.681527 51.766930 -3.163503
613 1 20.250271 53.526853 -1.356002
614 1 19.819151 55.286949 0.451498
615 1 19.387993 57.047014 2.258999
616 1 18.956664 58.806852 4.066499
617 1 22.867171 50.440983 -6.778504
618 1 22.435190 52.199284 -4.971004
619 1 22.003576 53.958088 -3.163503
620 1 21.572192 55.717216 -1.356003
621 1 21.140901 57.476471 0.451497
622 1 20.709620 59.235640 2.258998
623 1 24.189578 52.632693 -6.778505
624 1 23.757588 54.390438 -4.971004
625 1 23.325916 56.148582 -3.163504
626 1 22.894466 57.906954 -1.356004
627 1 25.512256 54.823740 -6.778506
628 1 25.080303 56.580929 -4.971005
629 1 24.648670 58.338409 -3.163505
630 1 26.835297 57.014140 -6.778506
631 1 26.403466 58.770761 -4.971006
632 1 28.158795 59.203919 -6.778507
633 2 -0.316347 7.700874 -4.970987
634 2 0.817747 9.325584 -6.778490
635 2 0.865878 11.180727 -4.970990
636 2 0.852289 13.008815 -3.163490
637 2 -0.338095 15.145518 0.451514
638 1 2.746727 11.568954 -6.778493
639 1 2.378297 13.458036 -4.970992
640 1 1.995218 15.249764 -3.163493
641 2 0.789161 16.779382 -1.355990
642 2 0.845685 18.637004 0.451511
643 2 0.826718 20.466929 2.259011
644 2 -0.373293 22.582080 5.874014
645 1 4.075925 13.862069 -6.778494
646 1 3.604154 15.707034 -4.970994
647 1 3.079747 17.414984 -3.163493
648 1 2.723970 19.043149 -1.355993
649 1 2.339633 20.949052 0.451509
650 1 1.954642 22.743174 2.259008
651 2 0.766449 24.258885 4.066511
652 2 0.792862 26.157075 5.874012
653 1 5.331544 16.113268 -6.778495
654 1 4.920078 17.860116 -4.970995
655 1 4.463989 19.596742 -3.163494
656 1 4.030184 21.356619 -1.355993
657 1 3.543128 23.218929 0.451508
658 1 2.994007 24.950447 2.259008
659 1 2.556750 26.631353 4.066509
660 1 2.258179 28.471938 5.874010
661 1 6.659052 18.317316 -6.778496
662 1 6.206196 20.079434 -4.970995
663 1 5.723386 21.855708 -3.163494
664 1 5.250963 23.633267 -1.355994
665 1 4.802859 25.400475 0.451507
666 1 4.366861 27.131458 2.259008
667 1 3.932953 28.914662 4.066509
668 1 3.521121 30.742745 5.874009
669 1 7.930405 20.548829 -6.778496
670 1 7.461351 22.315082 -4.970995
671 1 7.004987 24.076190 -3.163495
672 1 6.566607 25.835367 -1.355994
673 1 6.124137 27.597792 0.451506
674 1 5.680646 29.359619 2.259007
675 1 5.266733 31.134468 4.066508
676 1 4.873994 32.924432 5.874008
677 1 9.212454 22.764793 -6.778497
678 1 8.764178 24.521885 -4.970996
679 1 8.321006 26.280582 -3.163496
680 1 7.880103 28.040889 -1.355995
681 1 7.446089 29.799510 0.451506
682 1 7.024518 31.561702 2.259006
683 1 6.610453 33.339255 4.066507
684 1 6.186667 35.130832 5.874007
685 1 10.520868 24.967848 -6.778497
686 1 10.078035 26.724378 -4.970997
687 1 9.640053 28.481143 -3.163496
688 1 9.207895 30.238589 -1.355996
689 1 8.779332 32.000091 0.451505
690 1 8.351191 33.770561 2.259005
691 1 7.924064 35.548375 4.066506
692 1 7.501598 37.325252 5.874006
693 1 11.837020 27.167070 -6.778498
694 1 11.399869 28.922306 -4.970998
695 1 10.965638 30.679451 -3.163497
696 1 10.532412 32.440111 -1.355997
697 1 10.100591 34.204778 0.451504
698 1 9.673215 35.972886 2.259004
699 1 9.250774 37.743639 4.066505
700 1 8.828360 39.516598 5.874005
701 1 13.158246 29.364397 -6.778499
702 1 12.722039 31.120908 -4.970998
703 1 12.287177 32.879585 -3.163498
704 1 11.854812 34.640343 -1.355997
705 1 11.426006 36.403632 0.451503
706 1 10.999621 38.170503 2.259003
707 1 10.572745 39.940954 4.066504
708 1 10.144252 41.712548 5.874004
709 1 14.478841 31.562153 -6.778500
710 1 14.043530 33.318999 -4.970999
711 1 13.610471 35.077456 -3.163499
712 1 13.179502 36.838237 -1.355998
713 1 12.749756 38.602060 0.451502
714 1 12.320672 40.368591 2.259003
715 1 11.892559 42.136302 4.066503
716 1 11.465503 43.903832 5.874003
717 1 15.800489 33.758800 -6.778501
718 1 15.366383 35.515822 -4.971000
719 1 14.933609 37.274796 -3.163500
720 1 14.501999 39.035958 -1.355999
721 1 14.071758 40.799085 0.451501
722 1 13.642936 42.563711 2.259002
723 1 13.214727 44.329454 4.066502
724 1 12.785780 46.095898 5.874003
725 1 17.122521 35.954921 -6.778501
726 1 16.688600 37.712342 -4.971001
727 1 16.255928 39.471369 -3.163501
728 1 15.824631 41.232021 -1.356000
729 1 15.394465 42.994306 0.451500
730 1 14.964768 44.758071 2.259001
731 1 14.534988 46.522745 4.066501
732 1 14.105116 48.287437 5.874002
733 1 18.444368 38.150533 -6.778502
734 1 18.010876 39.907949 -4.971002
735 1 17.578514 41.666795 -3.163501
736 1 17.147054 43.427155 -1.356001
737 1 16.716214 45.188893 0.451500
738 1 16.285837 46.951585 2.259000
739 1 15.855809 48.714706 4.066500
740 1 15.425788 50.477887 5.874001
741 1 19.766439 40.345413 -6.778503
742 1 19.333151 42.102834 -4.971003
743 1 18.900696 43.861545 -3.163502
744 1 18.468996 45.621458 -1.356002
745 1 18.037958 47.382360 0.451499
746 1 17.607354 49.143990 2.258999
747 1 17.176810 50.906071 4.066500
748 1 16.746030 52.668248 5.874000
749 1 21.088447 42.539734 -6.778504
750 1 20.655242 44.297054 -4.971003
751 1 20.222812 46.055435 -3.163503
752 1 19.791054 47.814798 -1.356002
753 1 19.359762 49.575001 0.451498
754 1 18.928704 51.335806 2.258999
755 1 18.497728 53.096881 4.066499
756 1 18.066759 54.857892 5.873999
757 1 22.410488 44.733415 -6.778504
758 1 21.977410 46.490525 -4.971004
759 1 21.544976 48.248557 -3.163503
760 1 21.113057 50.007419 -1.356003
761 1 20.681527 51.766930 0.451497
762 1 20.250271 53.526853 2.258998
763 1 19.819151 55.286949 4.066498
764 1 19.387993 57.047014 5.873999
765 1 23.732639 46.926468 -6.778505
766 1 23.299628 48.683339 -4.971004
767 1 22.867171 50.440983 -3.163504
768 1 22.435190 52.199284 -1.356004
769 1 22.003576 53.958088 0.451497
770 1 21.572192 55.717216 2.258997
771 1 21.140901 57.476471 4.066497
772 1 20.709620 59.235640 5.873998
773 1 25.054908 49.118916 -6.778506
774 1 24.621989 50.875485 -4.971005
775 1 24.189578 52.632693 -3.163505
776 1 23.757588 54.390438 -1.356004
777 1 23.325916 56.148582 0.451496
778 1 22.894466 57.906954 2.258996
779 1 26.377397 51.310748 -6.778506
780 1 25.944597 53.066978 -4.971006
781 1 25.512256 54.823740 -3.163506
782 1 25.080303 56.580929 -1.356005
783 1 24.648670 58.338409 0.451495
784 1 27.700167 53.501983 -6.778507
785 1 27.267513 55.257847 -4.971007
786 1 26.835297 57.014140 -3.163506
787 1 26.403466 58.770761 -1.356006
788 1 29.023286 55.692633 -6.778508
789 1 28.590827 57.448105 -4.971007
790 1 28.158795 59.203919 -3.163507
791 1 30.346819 57.882722 -6.778509
792 2 0.881847 3.727376 -6.778490
793 2 0.869540 5.555335 -4.970990
794 2 -0.316347 7.700874 -1.355987
795 1 2.399669 5.993952 -6.778492
796 1 2.017895 7.784961 -4.970993
797 2 0.817747 9.325584 -3.163490
798 2 0.865878 11.180727 -1.355990
799 2 0.852289 13.008815 0.451510
800 2 -0.338095 15.145518 4.066514
801 1 3.628441 8.238722 -6.778494
802 1 3.102474 9.945917 -4.970994
803 1 2.746727 11.568954 -3.163493
804 1 2.378297 13.458036 -1.355992
805 1 1.995218 15.249764 0.451507
806 2 0.789161 16.779382 2.259010
807 2 0.845685 18.637004 4.066511
808 2 0.826719 20.466929 5.874011
809 1 4.949427 10.384046 -6.778495
810 1 4.502291 12.110616 -4.970994
811 1 4.075925 13.862069 -3.163494
812 1 3.604154 15.707034 -1.355994
813 1 3.079747 17.414984 0.451507
814 1 2.723970 19.043149 2.259007
815 1 2.339633 20.949052 4.066509
816 1 1.954642 22.743174 5.874008
817 1 6.254710 12.588666 -6.778496
818 1 5.784570 14.352222 -4.970995
819 1 5.331544 16.113268 -3.163495
820 1 4.920078 17.860116 -1.355995
821 1 4.463989 19.596742 0.451506
822 1 4.030184 21.356619 2.259007
823 1 3.543128 23.218929 4.066508
824 1 2.994007 24.950447 5.874008
825 1 7.534767 14.808940 -6.778497
826 1 7.095785 16.558542 -4.970996
827 1 6.659052 18.317316 -3.163496
828 1 6.206196 20.079434 -1.355995
829 1 5.723386 21.855708 0.451506
830 1 5.250963 23.633267 2.259006
831 1 4.802859 25.400475 4.066507
832 1 4.366861 27.131458 5.874008
833 1 8.844238 17.017819 -6.778497
834 1 8.393680 18.779190 -4.970997
835 1 7.930405 20.548829 -3.163496
836 1 7.461351 22.315082 -1.355995
837 1 7.004987 24.076190 0.451505
838 1 6.566607 25.835367 2.259006
839 1 6.124137 27.597792 4.066506
840 1 5.680646 29.359619 5.874007
841 1 10.129026 19.240021 -6.778498
842 1 9.668871 21.003817 -4.970997
843 1 9.212454 22.764793 -3.163497
844 1 8.764178 24.521885 -1.355996
845 1 8.321006 26.280582 0.451504
846 1 7.880103 28.040889 2.259005
847 1 7.446089 29.799510 4.066506
848 1 7.024518 31.561702 5.874006
849 1 11.417088 21.453839 -6.778499
850 1 10.966932 23.211309 -4.970998
851 1 10.520868 24.967848 -3.163497
852 1 10.078035 26.724378 -1.355997
853 1 9.640053 28.481143 0.451504
854 1 9.207895 30.238589 2.259004
855 1 8.779332 32.000091 4.066505