#LAMMPS data file
29248 atoms
2 atom types
-125.2250000000 125.2250000000 xlo xhi
-59.6201706000 59.6201706000 ylo yhi
-7.2300000000 7.2300000000 zlo zhi
0.0 0.0 0.0 xy xz yz

Atoms # atomic

1 1 0.674587 58.013190 -6.781467
2 1 0.300231 52.370132 -6.781467
3 1 1.328197 54.522511 -6.781467
4 1 0.963708 56.155481 -4.973967
5 1 0.674587 58.013190 -3.166467
6 1 2.759256 56.603945 -6.781467
7 1 2.364360 58.366450 -4.973967
8 1 4.062214 58.801745 -6.781467
9 2 0.806540 48.504913 -6.781467
10 2 0.646164 50.539246 -4.973967
11 1 0.300231 52.370132 -3.166467
12 1 2.283894 50.795931 -6.781467
13 1 1.876721 52.742046 -4.973967
14 1 1.328197 54.522511 -3.166467
15 1 0.963708 56.155481 -1.358967
16 1 0.674587 58.013190 0.448533
17 1 3.551415 53.056056 -6.781468
18 1 3.161487 54.859984 -4.973967
19 1 2.759256 56.603945 -3.166467
20 1 2.364360 58.366450 -1.358967
21 1 4.910548 55.223521 -6.781468
22 1 4.507585 57.010807 -4.973968
23 1 4.062214 58.801745 -3.166467
24 1 6.231903 57.415547 -6.781468
25 1 5.801382 59.199626 -4.973968
26 2 0.835865 42.824145 -6.781467
27 2 -0.356376 44.957720 -3.166466
28 1 1.974238 45.072946 -6.781468
29 2 0.794919 46.612720 -4.973967
30 2 0.806540 48.504913 -3.166467
31 2 0.646164 50.539246 -1.358967
32 1 0.300231 52.370132 0.448533
33 1 3.006753 47.276032 -6.781468
34 1 2.575795 48.955229 -4.973968
35 1 2.283894 50.795931 -3.166467
36 1 1.876721 52.742046 -1.358967
37 1 1.328197 54.522511 0.448533
38 1 0.963708 56.155481 2.256033
39 1 0.674587 58.013190 4.063533
40 1 4.388554 49.442890 -6.781468
41 1 3.959694 51.225831 -4.973968
42 1 3.551415 53.056056 -3.166468
43 1 3.161487 54.859984 -1.358967
44 1 2.759256 56.603945 0.448533
45 1 2.364360 58.366450 2.256033
46 1 5.708462 51.660075 -6.781468
47 1 5.297917 53.434915 -4.973968
48 1 4.910548 55.223521 -3.166468
49 1 4.507585 57.010807 -1.358968
50 1 4.062214 58.801745 0.448533
51 1 7.059318 53.849596 -6.781468
52 1 6.650582 55.625460 -4.973968
53 1 6.231903 57.415547 -3.166468
54 1 5.801382 59.199626 -1.358968
55 1 8.395006 56.045072 -6.781468
56 1 7.972940 57.820747 -4.973968
57 1 9.727569 58.232926 -6.781468
58 2 -0.328597 37.522947 -4.973967
59 2 0.817368 39.138682 -6.781467
60 2 0.847763 40.994979 -4.973967
61 2 0.835865 42.824145 -3.166467
62 2 -0.356376 44.957719 0.448534
63 1 2.723886 41.375335 -6.781468
64 1 2.356859 43.276350 -4.973968
65 1 1.974238 45.072946 -3.166468
66 2 0.794919 46.612720 -1.358967
67 2 0.806540 48.504913 0.448533
68 2 0.646164 50.539246 2.256033
69 1 0.300231 52.370132 4.063533
70 1 4.045042 43.674520 -6.781468
71 1 3.561239 45.539802 -4.973968
72 1 3.006753 47.276032 -3.166468
73 1 2.575795 48.955229 -1.358968
74 1 2.283894 50.795931 0.448533
75 1 1.876721 52.742046 2.256033
76 1 1.328197 54.522511 4.063533
77 1 0.963708 56.155481 5.871033
78 1 5.266628 45.944322 -6.781468
79 1 4.820714 47.712579 -4.973968
80 1 4.388554 49.442890 -3.166468
81 1 3.959694 51.225831 -1.358968
82 1 3.551415 53.056056 0.448532
83 1 3.161487 54.859984 2.256033
84 1 2.759256 56.603945 4.063533
85 1 2.364360 58.366450 5.871033
86 1 6.587022 48.135839 -6.781468
87 1 6.148574 49.898171 -4.973968
88 1 5.708462 51.660075 -3.166468
89 1 5.297917 53.434915 -1.358968
90 1 4.910548 55.223521 0.448532
91 1 4.507585 57.010807 2.256032
92 1 4.062214 58.801745 4.063533
93 1 7.906651 50.330492 -6.781468
94 1 7.476398 52.088693 -4.973968
95 1 7.059318 53.849596 -3.166468
96 1 6.650582 55.625460 -1.358968
97 1 6.231903 57.415547 0.448532
98 1 5.801382 59.199626 2.256032
99 1 9.241580 52.516540 -6.781468
100 1 8.817994 54.276506 -4.973968
101 1 8.395006 56.045072 -3.166468
102 1 7.972940 57.820747 -1.358968
103 1 10.575084 54.705586 -6.781468
104 1 10.148821 56.467976 -4.973968
105 1 9.727569 58.232926 -3.166468
106 1 11.908376 56.892363 -6.781468
107 1 11.487018 58.651753 -4.973968
108 1 13.247473 59.075221 -6.781468
109 2 0.858888 33.538508 -6.781468
110 2 0.852282 35.365918 -4.973968
111 2 -0.328597 37.522947 -1.358967
112 1 2.385208 35.787809 -6.781468
113 1 2.005740 37.581527 -4.973968
114 2 0.817368 39.138682 -3.166467
115 2 0.847763 40.994979 -1.358967
116 2 0.835865 42.824145 0.448533
117 2 -0.356376 44.957720 4.063534
118 1 3.610376 38.032444 -6.781468
119 1 3.078309 39.746414 -4.973968
120 1 2.723886 41.375335 -3.166468
121 1 2.356859 43.276350 -1.358968
122 1 1.974238 45.072946 0.448532
123 2 0.794919 46.612720 2.256033
124 2 0.806540 48.504913 4.063533
125 2 0.646164 50.539246 5.871033
126 1 4.921624 40.178676 -6.781468
127 1 4.472617 41.913135 -4.973968
128 1 4.045042 43.674520 -3.166468
129 1 3.561239 45.539802 -1.358968
130 1 3.006753 47.276032 0.448532
131 1 2.575795 48.955229 2.256032
132 1 2.283894 50.795931 4.063533
133 1 1.876721 52.742046 5.871033
134 1 6.216783 42.386091 -6.781468
135 1 5.737495 44.163970 -4.973968
136 1 5.266628 45.944322 -3.166468
137 1 4.820714 47.712579 -1.358968
138 1 4.388554 49.442890 0.448532
139 1 3.959694 51.225831 2.256032
140 1 3.551415 53.056056 4.063532
141 1 3.161487 54.859984 5.871033
142 1 7.475248 44.613775 -6.781468
143 1 7.021706 46.376161 -4.973968
144 1 6.587022 48.135839 -3.166468
145 1 6.148574 49.898171 -1.358968
146 1 5.708462 51.660075 0.448532
147 1 5.297917 53.434915 2.256032
148 1 4.910548 55.223521 4.063532
149 1 4.507585 57.010807 5.871032
150 1 8.782778 46.811130 -6.781468
151 1 8.343623 48.570126 -4.973968
152 1 7.906651 50.330492 -3.166468
153 1 7.476398 52.088693 -1.358968
154 1 7.059318 53.849596 0.448532
155 1 6.650582 55.625460 2.256032
156 1 6.231903 57.415547 4.063532
157 1 5.801382 59.199626 5.871032
158 1 10.102883 49.003453 -6.781468
159 1 9.669175 50.759982 -4.973968
160 1 9.241580 52.516540 -3.166468
161 1 8.817994 54.276506 -1.358968
162 1 8.395006 56.045072 0.448532
163 1 7.972940 57.820747 2.256032
164 1 11.432066 51.190584 -6.781468
165 1 11.002952 52.946614 -4.973968
166 1 10.575084 54.705586 -3.166468
167 1 10.148821 56.467976 -1.358968
168 1 9.727569 58.232926 0.448532
169 1 12.763200 53.377654 -6.781468
170 1 12.334274 55.134391 -4.973968
171 1 11.908376 56.892363 -3.166468
172 1 11.487018 58.651753 -1.358968
173 1 14.095524 55.563386 -6.781468
174 1 13.669929 57.318678 -4.973968
175 1 13.247473 59.075221 -3.166468
176 1 15.431781 57.746897 -6.781468
177 2 0.860964 27.912389 -6.781468
178 2 -0.315115 30.079200 -3.166467
179 1 2.019830 30.116666 -6.781468
180 2 0.838212 31.684216 -4.973968
181 2 0.858888 33.538508 -3.166468
182 2 0.852282 35.365918 -1.358968
183 2 -0.328596 37.522947 2.256033
184 1 3.091941 32.277814 -6.781468
185 1 2.737658 33.902214 -4.973968
186 1 2.385208 35.787809 -3.166468
187 1 2.005740 37.581527 -1.358968
188 2 0.817368 39.138682 0.448533
189 2 0.847763 40.994979 2.256033
190 2 0.835865 42.824145 4.063533
191 2 -0.356376 44.957720 -6.781466
192 1 4.500454 34.428657 -6.781468
193 1 4.080180 36.182319 -4.973968
194 1 3.610376 38.032444 -3.166468
195 1 3.078309 39.746414 -1.358968
196 1 2.723886 41.375335 0.448532
197 1 2.356859 43.276350 2.256032
198 1 1.974238 45.072946 4.063532
199 2 0.794919 46.612720 5.871033
200 1 5.786037 36.663829 -6.781468
201 1 5.333018 38.429409 -4.973968
202 1 4.921624 40.178676 -3.166468
203 1 4.472617 41.913135 -1.358968
204 1 4.045042 43.674520 0.448532
205 1 3.561239 45.539802 2.256032
206 1 3.006753 47.276032 4.063532
207 1 2.575795 48.955229 5.871032
208 1 7.097015 38.863443 -6.781469
209 1 6.664784 40.623052 -4.973968
210 1 6.216783 42.386091 -3.166468
211 1 5.737495 44.163970 -1.358968
212 1 5.266628 45.944322 0.448532
213 1 4.820714 47.712579 2.256032
214 1 4.388554 49.442890 4.063532
215 1 3.959694 51.225831 5.871032
216 1 8.400926 41.074300 -6.781468
217 1 7.941535 42.845615 -4.973968
218 1 7.475248 44.613775 -3.166468
219 1 7.021706 46.376161 -1.358968
220 1 6.587022 48.135839 0.448532
221 1 6.148574 49.898171 2.256032
222 1 5.708462 51.660075 4.063532
223 1 5.297917 53.434915 5.871032
224 1 9.680439 43.290729 -6.781468
225 1 9.227399 45.053195 -4.973968
226 1 8.782778 46.811130 -3.166468
227 1 8.343623 48.570126 -1.358968
228 1 7.906651 50.330492 0.448532
229 1 7.476398 52.088693 2.256032
230 1 7.059318 53.849596 4.063532
231 1 6.650582 55.625460 5.871032
232 1 10.983407 45.489440 -6.781468
233 1 10.541492 47.246682 -4.973968
234 1 10.102883 49.003453 -3.166468
235 1 9.669175 50.759982 -1.358968
236 1 9.241580 52.516540 0.448532
237 1 8.817994 54.276506 2.256032
238 1 8.395006 56.045072 4.063532
239 1 7.972940 57.820747 5.871032
240 1 12.300766 47.680857 -6.781468
241 1 11.864394 49.435844 -4.973968
242 1 11.432066 51.190584 -3.166468
243 1 11.002952 52.946614 -1.358968
244 1 10.575084 54.705586 0.448532
245 1 10.148821 56.467976 2.256032
246 1 9.727569 58.232926 4.063532
247 1 13.626147 49.868317 -6.781468
248 1 13.193784 51.622415 -4.973968
249 1 12.763200 53.377654 -3.166468
250 1 12.334274 55.134391 -1.358968
251 1 11.908376 56.892363 0.448532
252 1 11.487018 58.651753 2.256032
253 1 14.954965 52.054711 -6.781468
254 1 14.524131 53.808762 -4.973968
255 1 14.095524 55.563386 -3.166468
256 1 13.669929 57.318678 -1.358968
257 1 13.247473 59.075221 0.448532
258 1 16.285863 54.240019 -6.781469
259 1 15.857615 55.993176 -4.973969
260 1 15.431781 57.746897 -3.166468
261 1 17.619718 56.423974 -6.781469
262 1 17.193437 58.176708 -4.973969
263 1 18.954642 58.607917 -6.781469
264 2 -0.306854 22.630898 -4.973968
265 2 0.850048 24.231218 -6.781468
266 2 0.865613 26.085147 -4.973968
267 2 0.860964 27.912389 -3.166468
268 2 -0.315115 30.079200 0.448533
269 1 2.744640 26.441872 -6.781469
270 1 2.397640 28.323176 -4.973968
271 1 2.019830 30.116666 -3.166468
272 2 0.838212 31.684216 -1.358968
273 2 0.858888 33.538508 0.448532
274 2 0.852282 35.365918 2.256032
275 2 -0.328597 37.522947 5.871033
276 1 4.093721 28.715450 -6.781469
277 1 3.625404 30.563774 -4.973968
278 1 3.091941 32.277814 -3.166468
279 1 2.737658 33.902214 -1.358968
280 1 2.385208 35.787809 0.448532
281 1 2.005740 37.581527 2.256032
282 2 0.817368 39.138682 4.063533
283 2 0.847763 40.994979 5.871033
284 1 5.350046 30.957641 -6.781469
285 1 4.940981 32.702853 -4.973969
286 1 4.500454 34.428657 -3.166468
287 1 4.080180 36.182319 -1.358968
288 1 3.610376 38.032444 0.448532
289 1 3.078309 39.746414 2.256032
290 1 2.723886 41.375335 4.063532
291 1 2.356859 43.276350 5.871032
292 1 6.693103 33.141128 -6.781469
293 1 6.253547 34.896869 -4.973969
294 1 5.786037 36.663829 -3.166468
295 1 5.333018 38.429409 -1.358968
296 1 4.921624 40.178676 0.448532
297 1 4.472617 41.913135 2.256032
298 1 4.045042 43.674520 4.063532
299 1 3.561239 45.539802 5.871032
300 1 7.987343 35.352516 -6.781469
301 1 7.534187 37.111076 -4.973969
302 1 7.097015 38.863443 -3.166469
303 1 6.664784 40.623052 -1.358968
304 1 6.216783 42.386091 0.448532
305 1 5.737495 44.163970 2.256032
306 1 5.266628 45.944322 4.063532
307 1 4.820714 47.712579 5.871032
308 1 9.288466 37.554421 -6.781469
309 1 8.847116 39.311346 -4.973969
310 1 8.400926 41.074300 -3.166468
311 1 7.941535 42.845615 -1.358968
312 1 7.475248 44.613775 0.448532
313 1 7.021706 46.376161 2.256032
314 1 6.587022 48.135839 4.063532
315 1 6.148574 49.898171 5.871032
316 1 10.590035 39.760487 -6.781469
317 1 10.136989 41.525018 -4.973968
318 1 9.680439 43.290729 -3.166468
319 1 9.227399 45.053195 -1.358968
320 1 8.782778 46.811130 0.448532
321 1 8.343623 48.570126 2.256032
322 1 7.906651 50.330492 4.063532
323 1 7.476398 52.088693 5.871032
324 1 11.880340 41.969584 -6.781469
325 1 11.429584 43.730691 -4.973968
326 1 10.983407 45.489440 -3.166468
327 1 10.541492 47.246682 -1.358968
328 1 10.102883 49.003453 0.448532
329 1 9.669175 50.759982 2.256032
330 1 9.241580 52.516540 4.063532
331 1 8.817994 54.276506 5.871032
332 1 13.183479 44.168294 -6.781469
333 1 12.740557 45.925070 -4.973969
334 1 12.300766 47.680857 -3.166468
335 1 11.864394 49.435844 -1.358968
336 1 11.432066 51.190584 0.448532
337 1 11.002952 52.946614 2.256032
338 1 10.575084 54.705586 4.063532
339 1 10.148821 56.467976 5.871032
340 1 14.498934 46.360004 -6.781469
341 1 14.061082 48.114424 -4.973969
342 1 13.626147 49.868317 -3.166468
343 1 13.193784 51.622415 -1.358968
344 1 12.763200 53.377654 0.448532
345 1 12.334274 55.134391 2.256032
346 1 11.908376 56.892363 4.063532
347 1 11.487018 58.651753 5.871032
348 1 15.821790 48.547986 -6.781469
349 1 15.387480 50.301218 -4.973969
350 1 14.954965 52.054711 -3.166468
351 1 14.524131 53.808762 -1.358968
352 1 14.095524 55.563386 0.448532
353 1 13.669929 57.318678 2.256032
354 1 13.247473 59.075221 4.063532
355 1 17.148618 50.734386 -6.781469
356 1 16.716330 52.487121 -4.973969
357 1 16.285863 54.240019 -3.166469
358 1 15.857615 55.993176 -1.358969
359 1 15.431781 57.746897 0.448532
360 1 18.477977 52.919713 -6.781469
361 1 18.047893 54.671741 -4.973969
362 1 17.619718 56.423974 -3.166469
363 1 17.193437 58.176708 -1.358969
364 1 19.809778 55.104123 -6.781469
365 1 19.381457 56.855789 -4.973969
366 1 18.954642 58.607917 -3.166469
367 1 21.142604 57.288606 -6.781469
368 1 20.715106 59.040454 -4.973969
369 2 0.870746 18.632278 -6.781468
370 2 0.867022 20.459455 -4.973968
371 2 -0.306854 22.630898 -1.358968
372 1 2.405329 20.865150 -6.781469
373 1 2.028248 22.658627 -4.973969
374 2 0.850048 24.231218 -3.166468
375 2 0.865613 26.085147 -1.358968
376 2 0.860964 27.912389 0.448532
377 2 -0.315115 30.079200 4.063533
378 1 3.633819 23.104179 -6.781469
379 1 3.099184 24.818689 -4.973969
380 1 2.744640 26.441872 -3.166469
381 1 2.397640 28.323176 -1.358968
382 1 2.019830 30.116666 0.448532
383 2 0.838212 31.684216 2.256032
384 2 0.858888 33.538508 4.063532
385 2 0.852282 35.365918 5.871032
386 1 4.950056 25.240646 -6.781469
387 1 4.512045 26.963736 -4.973969
388 1 4.093721 28.715450 -3.166469
389 1 3.625404 30.563774 -1.358968
390 1 3.091941 32.277814 0.448532
391 1 2.737658 33.902214 2.256032
392 1 2.385208 35.787809 4.063532
393 1 2.005740 37.581527 5.871032
394 1 6.267627 27.429862 -6.781469
395 1 5.801802 29.194444 -4.973969
396 1 5.350046 30.957641 -3.166469
397 1 4.940981 32.702853 -1.358969
398 1 4.500454 34.428657 0.448532
399 1 4.080180 36.182319 2.256032
400 1 3.610376 38.032444 4.063532
401 1 3.078309 39.746414 5.871032
402 1 7.553105 29.639354 -6.781469
403 1 7.119174 31.387722 -4.973969
404 1 6.693103 33.141128 -3.166469
405 1 6.253547 34.896869 -1.358969
406 1 5.786037 36.663829 0.448532
407 1 5.333018 38.429409 2.256032
408 1 4.921624 40.178676 4.063532
409 1 4.472617 41.913135 5.871032
410 1 8.875759 31.832164 -6.781469
411 1 8.436862 33.588992 -4.973969
412 1 7.987343 35.352516 -3.166469
413 1 7.534187 37.111076 -1.358969
414 1 7.097015 38.863443 0.448531
415 1 6.664784 40.623052 2.256032
416 1 6.216783 42.386091 4.063532
417 1 5.737495 44.163970 5.871032
418 1 10.179092 34.038096 -6.781469
419 1 9.731880 35.797520 -4.973969
420 1 9.288466 37.554421 -3.166469
421 1 8.847116 39.311346 -1.358969
422 1 8.400926 41.074300 0.448532
423 1 7.941535 42.845615 2.256032
424 1 7.475248 44.613775 4.063532
425 1 7.021706 46.376161 5.871032
426 1 11.480717 36.241530 -6.781469
427 1 11.036829 37.999786 -4.973969
428 1 10.590035 39.760487 -3.166469
429 1 10.136989 41.525018 -1.358968
430 1 9.680439 43.290729 0.448532
431 1 9.227399 45.053195 2.256032
432 1 8.782778 46.811130 4.063532
433 1 8.343623 48.570126 5.871032
434 1 12.782069 38.445716 -6.781469
435 1 12.332402 40.207254 -4.973969
436 1 11.880340 41.969584 -3.166469
437 1 11.429584 43.730691 -1.358968
438 1 10.983407 45.489440 0.448532
439 1 10.541492 47.246682 2.256032
440 1 10.102883 49.003453 4.063532
441 1 9.669175 50.759982 5.871032
442 1 14.078515 40.650464 -6.781469
443 1 13.629741 42.410121 -4.973969
444 1 13.183479 44.168294 -3.166469
445 1 12.740557 45.925070 -1.358969
446 1 12.300766 47.680857 0.448532
447 1 11.864394 49.435844 2.256032
448 1 11.432066 51.190584 4.063532
449 1 11.002952 52.946614 5.871032
450 1 15.382873 42.848445 -6.781469
451 1 14.939576 44.604748 -4.973969
452 1 14.498934 46.360004 -3.166469
453 1 14.061082 48.114424 -1.358969
454 1 13.626147 49.868317 0.448532
455 1 13.193784 51.622415 2.256032
456 1 12.763200 53.377654 4.063532
457 1 12.334274 55.134391 5.871032
458 1 16.697113 45.040461 -6.781469
459 1 16.258276 46.794531 -4.973969
460 1 15.821790 48.547986 -3.166469
461 1 15.387480 50.301218 -1.358969
462 1 14.954965 52.054711 0.448532
463 1 14.524131 53.808762 2.256032
464 1 14.095524 55.563386 4.063532
465 1 13.669929 57.318678 5.871032
466 1 18.018133 47.228954 -6.781469
467 1 17.582521 48.981734 -4.973969
468 1 17.148618 50.734386 -3.166469
469 1 16.716330 52.487121 -1.358969
470 1 16.285863 54.240019 0.448531
471 1 15.857615 55.993176 2.256031
472 1 15.431781 57.746897 4.063532
473 1 19.343273 49.415647 -6.781469
474 1 18.909832 51.167711 -4.973969
475 1 18.477977 52.919713 -3.166469
476 1 18.047893 54.671741 -1.358969
477 1 17.619718 56.423974 0.448531
478 1 17.193437 58.176708 2.256031
479 1 20.671134 51.601244 -6.781469
480 1 20.239670 53.352673 -4.973969
481 1 19.809778 55.104123 -3.166469
482 1 19.381457 56.855789 -1.358969
483 1 18.954642 58.607917 0.448531
484 1 22.001148 53.786139 -6.781469
485 1 21.571246 55.537246 -4.973969
486 1 21.142604 57.288606 -3.166469
487 1 20.715106 59.040454 -1.358969
488 1 23.332115 55.971144 -6.781469
489 1 22.902980 57.722410 -4.973969
490 1 24.662478 58.157146 -6.781469
491 2 0.871892 13.006748 -6.781468
492 2 -0.300873 15.180547 -3.166468
493 1 2.034290 15.203374 -6.781469
494 2 0.857835 16.778484 -4.973968
495 2 0.870746 18.632278 -3.166468
496 2 0.867022 20.459455 -1.358968
497 2 -0.306854 22.630898 2.256032
498 1 3.104530 17.362961 -6.781469
499 1 2.749824 18.985638 -4.973969
500 1 2.405329 20.865150 -3.166469
501 1 2.028248 22.658627 -1.358969
502 2 0.850048 24.231218 0.448532
503 2 0.865613 26.085147 2.256032
504 2 0.860964 27.912389 4.063532
505 2 -0.315115 30.079200 -6.781467
506 1 4.519252 19.505323 -6.781469
507 1 4.101722 21.256281 -4.973969
508 1 3.633819 23.104179 -3.166469
509 1 3.099184 24.818689 -1.358969
510 1 2.744640 26.441872 0.448531
511 1 2.397640 28.323176 2.256032
512 1 2.019830 30.116666 4.063532
513 2 0.838212 31.684216 5.871032
514 1 5.810477 21.734121 -6.781469
515 1 5.358817 23.496622 -4.973969
516 1 4.950056 25.240646 -3.166469
517 1 4.512045 26.963736 -1.358969
518 1 4.093721 28.715450 0.448531
519 1 3.625404 30.563774 2.256032
520 1 3.091941 32.277814 4.063532
521 1 2.737658 33.902214 5.871032
522 1 7.129639 23.924904 -6.781469
523 1 6.705185 25.676246 -4.973969
524 1 6.267627 27.429862 -3.166469
525 1 5.801802 29.194444 -1.358969
526 1 5.350046 30.957641 0.448531
527 1 4.940981 32.702853 2.256031
528 1 4.500454 34.428657 4.063532
529 1 4.080180 36.182319 5.871032
530 1 8.451529 26.122378 -6.781469
531 1 8.004041 27.883538 -4.973969
532 1 7.553105 29.639354 -3.166469
533 1 7.119174 31.387722 -1.358969
534 1 6.693103 33.141128 0.448531
535 1 6.253547 34.896869 2.256031
536 1 5.786037 36.663829 4.063532
537 1 5.333018 38.429409 5.871032
538 1 9.751776 28.326704 -6.781469
539 1 9.311848 30.080074 -4.973969
540 1 8.875759 31.832164 -3.166469
541 1 8.436862 33.588992 -1.358969
542 1 7.987343 35.352516 0.448531
543 1 7.534187 37.111076 2.256031
544 1 7.097015 38.863443 4.063531
545 1 6.664784 40.623052 5.871032
546 1 11.065056 30.523344 -6.781469
547 1 10.624367 32.279254 -4.973969
548 1 10.179092 34.038096 -3.166469
549 1 9.731880 35.797520 -1.358969
550 1 9.288466 37.554421 0.448531
551 1 8.847116 39.311346 2.256031
552 1 8.400926 41.074300 4.063532
553 1 7.941535 42.845615 5.871032
554 1 12.370740 32.725614 -6.781469
555 1 11.925368 34.483726 -4.973969
556 1 11.480717 36.241530 -3.166469
557 1 11.036829 37.999786 -1.358969
558 1 10.590035 39.760487 0.448531
559 1 10.136989 41.525018 2.256032
560 1 9.680439 43.290729 4.063532
561 1 9.227399 45.053195 5.871032
562 1 13.673428 34.928051 -6.781469
563 1 13.228517 36.686164 -4.973969
564 1 12.782069 38.445716 -3.166469
565 1 12.332402 40.207254 -1.358969
566 1 11.880340 41.969584 0.448531
567 1 11.429584 43.730691 2.256032
568 1 10.983407 45.489440 4.063532
569 1 10.541492 47.246682 5.871032
570 1 14.975433 37.130580 -6.781469
571 1 14.527677 38.890227 -4.973969
572 1 14.078515 40.650464 -3.166469
573 1 13.629741 42.410121 -1.358969
574 1 13.183479 44.168294 0.448531
575 1 12.740557 45.925070 2.256031
576 1 12.300766 47.680857 4.063532
577 1 11.864394 49.435844 5.871032
578 1 16.275715 39.332534 -6.781469
579 1 15.828551 41.090961 -4.973969
580 1 15.382873 42.848445 -3.166469
581 1 14.939576 44.604748 -1.358969
582 1 14.498934 46.360004 0.448531
583 1 14.061082 48.114424 2.256031
584 1 13.626147 49.868317 4.063532
585 1 13.193784 51.622415 5.871032
586 1 17.581498 41.529690 -6.781469
587 1 17.138244 43.285551 -4.973969
588 1 16.697113 45.040461 -3.166469
589 1 16.258276 46.794531 -1.358969
590 1 15.821790 48.547986 0.448531
591 1 15.387480 50.301218 2.256031
592 1 14.954965 52.054711 4.063532
593 1 14.524131 53.808762 5.871032
594 1 18.895095 43.721923 -6.781469
595 1 18.455633 45.475760 -4.973969
596 1 18.018133 47.228954 -3.166469
597 1 17.582521 48.981734 -1.358969
598 1 17.148618 50.734386 0.448531
599 1 16.716330 52.487121 2.256031
600 1 16.285863 54.240019 4.063531
601 1 15.857615 55.993176 5.871031
602 1 20.214761 45.910892 -6.781469
603 1 19.778230 47.663425 -4.973969
604 1 19.343273 49.415647 -3.166469
605 1 18.909832 51.167711 -1.358969
606 1 18.477977 52.919713 0.448531
607 1 18.047893 54.671741 2.256031
608 1 17.619718 56.423974 4.063531
609 1 17.193437 58.176708 5.871031
610 1 21.538474 48.097991 -6.781469
611 1 21.104095 49.849711 -4.973969
612 1 20.671134 51.601244 -3.166469
613 1 20.239670 53.352673 -1.358969
614 1 19.809778 55.104123 0.448531
615 1 19.381457 56.855789 2.256031
616 1 18.954642 58.607917 4.063531
617 1 22.864939 50.283981 -6.781468
618 1 22.432376 52.035099 -4.973968
619 1 22.001148 53.786139 -3.166469
620 1 21.571246 55.537246 -1.358969
621 1 21.142604 57.288606 0.448531
622 1 20.715106 59.040454 2.256031
623 1 24.193378 52.469375 -6.781469
624 1 23.762209 54.220194 -4.973969
625 1 23.332115 55.971144 -3.166469
626 1 22.902980 57.722410 -1.358969
627 1 25.522710 54.654877 -6.781468
628 1 25.092259 56.405818 -4.973969
629 1 24.662478 58.157146 -3.166469
630 1 26.851618 56.841231 -6.781468
631 1 26.421101 58.592709 -4.973968
632 1 28.178927 59.028970 -6.781468
633 2 -0.296074 7.729068 -4.973968
634 2 0.863466 9.325872 -6.781469
635 2 0.875166 11.179600 -4.973968
636 2 0.871892 13.006748 -3.166468
637 2 -0.300873 15.180547 0.448532
638 1 2.754275 11.531302 -6.781469
639 1 2.411012 13.409901 -4.973969
640 1 2.034290 15.203374 -3.166469
641 2 0.857835 16.778484 -1.358968
642 2 0.870746 18.632278 0.448532
643 2 0.867022 20.459455 2.256032
644 2 -0.306854 22.630898 5.871032
645 1 4.107559 13.800464 -6.781469
646 1 3.639817 15.648166 -4.973969
647 1 3.104530 17.362961 -3.166469
648 1 2.749824 18.985638 -1.358969
649 1 2.405329 20.865150 0.448531
650 1 2.028248 22.658627 2.256031
651 2 0.850048 24.231218 4.063532
652 2 0.865613 26.085147 5.871032
653 1 5.364933 16.039906 -6.781469
654 1 4.956209 17.783408 -4.973969
655 1 4.519252 19.505323 -3.166469
656 1 4.101722 21.256281 -1.358969
657 1 3.633819 23.104179 0.448531
658 1 3.099184 24.818689 2.256031
659 1 2.744640 26.441872 4.063531
660 1 2.397640 28.323176 5.871032
661 1 6.712669 18.217704 -6.781469
662 1 6.275837 19.970414 -4.973969
663 1 5.810477 21.734121 -3.166469
664 1 5.358817 23.496622 -1.358969
665 1 4.950056 25.240646 0.448531
666 1 4.512045 26.963736 2.256031
667 1 4.093721 28.715450 4.063531
668 1 3.625404 30.563774 5.871032
669 1 8.013260 20.423144 -6.781469
670 1 7.562847 22.177927 -4.973969
671 1 7.129639 23.924904 -3.166469
672 1 6.705185 25.676246 -1.358969
673 1 6.267627 27.429862 0.448531
674 1 5.801802 29.194444 2.256031
675 1 5.350046 30.957641 4.063531
676 1 4.940981 32.702853 5.871031
677 1 9.323291 22.617373 -6.781469
678 1 8.888605 24.367661 -4.973969
679 1 8.451529 26.122378 -3.166469
680 1 8.004041 27.883538 -1.358969
681 1 7.553105 29.639354 0.448531
682 1 7.119174 31.387722 2.256031
683 1 6.693103 33.141128 4.063531
684 1 6.253547 34.896869 5.871031
685 1 10.639618 24.813415 -6.781469
686 1 10.196441 26.569985 -4.973969
687 1 9.751776 28.326704 -3.166469
688 1 9.311848 30.080074 -1.358969
689 1 8.875759 31.832164 0.448531
690 1 8.436862 33.588992 2.256031
691 1 7.987343 35.352516 4.063531
692 1 7.534187 37.111076 5.871031
693 1 11.945666 27.014261 -6.781469
694 1 11.504361 28.768988 -4.973969
695 1 11.065056 30.523344 -3.166469
696 1 10.624367 32.279254 -1.358969
697 1 10.179092 34.038096 0.448531
698 1 9.731880 35.797520 2.256031
699 1 9.288466 37.554421 4.063531
700 1 8.847116 39.311346 5.871031
701 1 13.255829 29.212415 -6.781469
702 1 12.814378 30.968239 -4.973969
703 1 12.370740 32.725614 -3.166469
704 1 11.925368 34.483726 -1.358969
705 1 11.480717 36.241530 0.448531
706 1 11.036829 37.999786 2.256031
707 1 10.590035 39.760487 4.063531
708 1 10.136989 41.525018 5.871032
709 1 14.562498 31.413061 -6.781469
710 1 14.118167 33.170408 -4.973969
711 1 13.673428 34.928051 -3.166469
712 1 13.228517 36.686164 -1.358969
713 1 12.782069 38.445716 0.448531
714 1 12.332402 40.207254 2.256031
715 1 11.880340 41.969584 4.063531
716 1 11.429584 43.730691 5.871032
717 1 15.866432 33.614347 -6.781469
718 1 15.421451 35.372036 -4.973969
719 1 14.975433 37.130580 -3.166469
720 1 14.527677 38.890227 -1.358969
721 1 14.078515 40.650464 0.448531
722 1 13.629741 42.410121 2.256031
723 1 13.183479 44.168294 4.063531
724 1 12.740557 45.925070 5.871031
725 1 17.169535 35.815467 -6.781469
726 1 16.723036 37.573819 -4.973969
727 1 16.275715 39.332534 -3.166469
728 1 15.828551 41.090961 -1.358969
729 1 15.382873 42.848445 0.448531
730 1 14.939576 44.604748 2.256031
731 1 14.498934 46.360004 4.063531
732 1 14.061082 48.114424 5.871031
733 1 18.472408 38.015504 -6.781469
734 1 18.026468 39.772915 -4.973969
735 1 17.581498 41.529690 -3.166469
736 1 17.138244 43.285551 -1.358969
737 1 16.697113 45.040461 0.448531
738 1 16.258276 46.794531 2.256031
739 1 15.821790 48.547986 4.063531
740 1 15.387480 50.301218 5.871031
741 1 19.779483 40.211887 -6.781469
742 1 19.336449 41.967309 -4.973969
743 1 18.895095 43.721923 -3.166469
744 1 18.455633 45.475760 -1.358969
745 1 18.018133 47.228954 0.448531
746 1 17.582521 48.981734 2.256031
747 1 17.148618 50.734386 4.063531
748 1 16.716330 52.487121 5.871031
749 1 21.092796 42.404228 -6.781469
750 1 20.652947 44.157872 -4.973969
751 1 20.214761 45.910892 -3.166469
752 1 19.778230 47.663425 -1.358969
753 1 19.343273 49.415647 0.448531
754 1 18.909832 51.167711 2.256031
755 1 18.477977 52.919713 4.063531
756 1 18.047893 54.671741 5.871031
757 1 22.411456 44.593607 -6.781468
758 1 21.974250 46.345993 -4.973969
759 1 21.538474 48.097991 -3.166469
760 1 21.104095 49.849711 -1.358969
761 1 20.671134 51.601244 0.448531
762 1 20.239670 53.352673 2.256031
763 1 19.809778 55.104123 4.063531
764 1 19.381457 56.855789 5.871031
765 1 23.733962 46.781141 -6.781468
766 1 23.298811 48.532687 -4.973968
767 1 22.864939 50.283981 -3.166468
768 1 22.432376 52.035099 -1.358968
769 1 22.001148 53.786139 0.448531
770 1 21.571246 55.537246 2.256031
771 1 21.142604 57.288606 4.063531
772 1 20.715106 59.040454 5.871031
773 1 25.059159 48.967571 -6.781468
774 1 24.625686 50.718538 -4.973968
775 1 24.193378 52.469375 -3.166469
776 1 23.762209 54.220194 -1.358969
777 1 23.332115 55.971144 0.448531
778 1 22.902980 57.722410 2.256031
779 1 26.386199 51.153456 -6.781468
780 1 25.953988 52.904139 -4.973968
781 1 25.522710 54.654877 -3.166468
782 1 25.092259 56.405818 -1.358969
783 1 24.662478 58.157146 0.448531
784 1 27.714093 53.339424 -6.781468
785 1 27.282558 55.090191 -4.973968
786 1 26.851618 56.841231 -3.166468
787 1 26.421101 58.592709 -1.358968
788 1 29.041714 55.526109 -6.781468
789 1 28.610203 57.277309 -4.973968
790 1 28.178927 59.028970 -3.166468
791 1 30.368075 57.713960 -6.781468
792 2 0.879260 3.727026 -6.781469
793 2 0.876149 5.554161 -4.973969
794 2 -0.296074 7.729068 -1.358968
795 1 2.415675 5.956170 -6.781469
796 1 2.039119 7.749601 -4.973969
797 2 0.863466 9.325872 -3.166469
798 2 0.875166 11.179600 -1.358968
799 2 0.871892 13.006748 0.448532
800 2 -0.300873 15.180547 4.063532
801 1 3.644680 8.194034 -6.781469
802 1 3.109091 9.908914 -4.973969
803 1 2.754275 11.531302 -3.166469
804 1 2.411012 13.409901 -1.358969
805 1 2.034290 15.203374 0.448531
806 2 0.857835 16.778484 2.256032
807 2 0.870746 18.632278 4.063532
808 2 0.867022 20.459455 5.871032
809 1 4.961199 10.328641 -6.781469
810 1 4.524733 12.049915 -4.973969
811 1 4.107559 13.800464 -3.166469
812 1 3.639817 15.648166 -1.358969
813 1 3.104530 17.362961 0.448531
814 1 2.749824 18.985638 2.256031
815 1 2.405329 20.865150 4.063531
816 1 2.028248 22.658627 5.871031
817 1 6.281842 12.514516 -6.781469
818 1 5.816636 14.277746 -4.973969
819 1 5.364933 16.039906 -3.166469
820 1 4.956209 17.783408 -1.358969
821 1 4.519252 19.505323 0.448531
822 1 4.101722 21.256281 2.256031
823 1 3.633819 23.104179 4.063531
824 1 3.099184 24.818689 5.871031
825 1 7.569526 14.721029 -6.781469
826 1 7.136525 16.467313 -4.973969
827 1 6.712669 18.217704 -3.166469
828 1 6.275837 19.970414 -1.358969
829 1 5.810477 21.734121 0.448531
830 1 5.358817 23.496622 2.256031
831 1 4.950056 25.240646 4.063531
832 1 4.512045 26.963736 5.871031
833 1 8.896598 16.909260 -6.781469
834 1 8.460138 18.662988 -4.973969
835 1 8.013260 20.423144 -3.166469
836 1 7.562847 22.177927 -1.358969
837 1 7.129639 23.924904 0.448531
838 1 6.705185 25.676246 2.256031
839 1 6.267627 27.429862 4.063531
840 1 5.801802 29.194444 5.871031
841 1 10.206229 19.109865 -6.781470
842 1 9.762287 20.865410 -4.973969
843 1 9.323291 22.617373 -3.166469
844 1 8.888605 24.367661 -1.358969
845 1 8.451529 26.122378 0.448531
846 1 8.004041 27.883538 2.256031
847 1 7.553105 29.639354 4.063531
848 1 7.119174 31.387722 5.871031
849 1 11.516520 21.306778 -6.781470
850 1 11.078565 23.059466 -4.973969
851 1 10.639618 24.813415 -3.166469
852 1 10.196441 26.569985 -1.358969
853 1 9.751776 28.326704 0.448531
854 1 9.311848 30.080074 2.256031