#LAMMPS data file
29248 atoms
2 atom types
-125.2250000000 125.2250000000 xlo xhi
-59.6201706000 59.6201706000 ylo yhi
-7.2300000000 7.2300000000 zlo zhi
0.0 0.0 0.0 xy xz yz

Atoms # atomic

1 1 0.667509 58.070795 -6.779480
2 1 0.286469 52.412900 -6.779480
3 1 1.333191 54.572846 -6.779480
4 1 0.980098 56.199500 -4.971980
5 1 0.667509 58.070795 -3.164480
6 1 2.764478 56.685103 -6.779481
7 1 2.359558 58.440332 -4.971981
8 1 4.063593 58.897716 -6.779481
9 1 0.961249 48.739161 -6.779481
10 1 0.652526 50.611759 -4.971980
11 1 0.286469 52.412900 -3.164480
12 1 2.342895 50.978291 -6.779481
13 1 1.882043 52.840048 -4.971980
14 1 1.333191 54.572846 -3.164480
15 1 0.980098 56.199500 -1.356980
16 1 0.667509 58.070795 0.450520
17 1 3.595082 53.209276 -6.779481
18 1 3.187218 54.962771 -4.971981
19 1 2.764478 56.685103 -3.164481
20 1 2.359558 58.440332 -1.356981
21 1 4.948428 55.367412 -6.779481
22 1 4.522205 57.126404 -4.971981
23 1 4.063593 58.897716 -3.164481
24 1 6.256972 57.556173 -6.779481
25 1 5.811861 59.319670 -4.971981
26 1 0.636496 43.140884 -6.779481
27 1 0.273382 44.945924 -4.971981
28 1 1.865200 45.369712 -6.779481
29 1 1.313320 47.108888 -4.971981
30 1 0.961249 48.739161 -3.164481
31 1 0.652526 50.611759 -1.356980
32 1 0.286469 52.412900 0.450520
33 1 3.165494 47.493202 -6.779481
34 1 2.745337 49.219480 -4.971981
35 1 2.342895 50.978291 -3.164481
36 1 1.882043 52.840048 -1.356980
37 1 1.333191 54.572846 0.450520
38 1 0.980098 56.199500 2.258020
39 1 0.667509 58.070795 4.065520
40 1 4.500893 49.656434 -6.779481
41 1 4.044339 51.432681 -4.971981
42 1 3.595082 53.209276 -3.164481
43 1 3.187218 54.962771 -1.356981
44 1 2.764478 56.685103 0.450519
45 1 2.359558 58.440332 2.258019
46 1 5.789382 51.851350 -6.779481
47 1 5.362228 53.609700 -4.971981
48 1 4.948428 55.367412 -3.164481
49 1 4.522205 57.126404 -1.356981
50 1 4.063593 58.897716 0.450519
51 1 7.121284 54.024259 -6.779481
52 1 6.695265 55.787227 -4.971981
53 1 6.256972 57.556173 -3.164481
54 1 5.811861 59.319670 -1.356981
55 1 8.438772 56.210039 -6.779481
56 1 8.003127 57.975201 -4.971981
57 1 9.755903 58.392884 -6.779481
58 1 0.271629 37.480030 -6.779481
59 1 1.298597 39.637691 -6.779481
60 1 0.938161 41.272442 -4.971981
61 1 0.636496 43.140884 -3.164481
62 1 0.273382 44.945924 -1.356981
63 1 2.723187 41.736048 -6.779482
64 1 2.324562 43.502247 -4.971981
65 1 1.865200 45.369712 -3.164481
66 1 1.313320 47.108888 -1.356981
67 1 0.961249 48.739161 0.450519
68 1 0.652526 50.611759 2.258020
69 1 0.286469 52.412900 4.065520
70 1 4.019997 43.947046 -6.779481
71 1 3.572968 45.733560 -4.971981
72 1 3.165494 47.493202 -3.164481
73 1 2.745337 49.219480 -1.356981
74 1 2.342895 50.978291 0.450519
75 1 1.882043 52.840048 2.258020
76 1 1.333191 54.572846 4.065520
77 1 0.980098 56.199500 5.873020
78 1 5.334452 46.125939 -6.779481
79 1 4.924316 47.891813 -4.971981
80 1 4.500893 49.656434 -3.164481
81 1 4.044339 51.432681 -1.356981
82 1 3.595082 53.209276 0.450519
83 1 3.187218 54.962771 2.258019
84 1 2.764478 56.685103 4.065519
85 1 2.359558 58.440332 5.873019
86 1 6.667126 48.305673 -6.779481
87 1 6.232319 50.081989 -4.971981
88 1 5.789382 51.851350 -3.164481
89 1 5.362228 53.609700 -1.356981
90 1 4.948428 55.367412 0.450519
91 1 4.522205 57.126404 2.258019
92 1 4.063593 58.897716 4.065519
93 1 7.974491 50.497021 -6.779481
94 1 7.545456 52.263381 -4.971981
95 1 7.121284 54.024259 -3.164481
96 1 6.695265 55.787227 -1.356981
97 1 6.256972 57.556173 0.450519
98 1 5.811861 59.319670 2.258019
99 1 9.297983 52.678509 -6.779481
100 1 8.871092 54.443810 -4.971981
101 1 8.438772 56.210039 -3.164481
102 1 8.003127 57.975201 -1.356981
103 1 10.618114 54.864461 -6.779481
104 1 10.186666 56.630094 -4.971981
105 1 9.755903 58.392884 -3.164481
106 1 11.937527 57.049781 -6.779481
107 1 11.508818 58.812276 -4.971981
108 1 13.260667 59.233606 -6.779481
109 2 0.791111 33.608270 -6.779481
110 2 0.621303 35.651095 -4.971981
111 1 0.271629 37.480030 -3.164481
112 1 2.259195 35.917180 -6.779481
113 1 1.847277 37.863201 -4.971981
114 1 1.298597 39.637691 -3.164481
115 1 0.938161 41.272442 -1.356981
116 1 0.636496 43.140884 0.450519
117 1 0.273382 44.945924 2.258019
118 1 3.522799 38.185805 -6.779482
119 1 3.131638 39.988871 -4.971982
120 1 2.723187 41.736048 -3.164482
121 1 2.324562 43.502247 -1.356981
122 1 1.865200 45.369712 0.450519
123 1 1.313320 47.108888 2.258019
124 1 0.961249 48.739161 4.065519
125 1 0.652526 50.611759 5.873020
126 1 4.876299 40.364769 -6.779482
127 1 4.468396 42.153906 -4.971982
128 1 4.019997 43.947046 -3.164481
129 1 3.572968 45.733560 -1.356981
130 1 3.165494 47.493202 0.450519
131 1 2.745337 49.219480 2.258019
132 1 2.342895 50.978291 4.065519
133 1 1.882043 52.840048 5.873020
134 1 6.189934 42.568602 -6.779482
135 1 5.756260 44.354818 -4.971981
136 1 5.334452 46.125939 -3.164481
137 1 4.924316 47.891813 -1.356981
138 1 4.500893 49.656434 0.450519
139 1 4.044339 51.432681 2.258019
140 1 3.595082 53.209276 4.065519
141 1 3.187218 54.962771 5.873019
142 1 7.505407 44.760578 -6.779481
143 1 7.087958 46.533132 -4.971981
144 1 6.667126 48.305673 -3.164481
145 1 6.232319 50.081989 -1.356981
146 1 5.789382 51.851350 0.450519
147 1 5.362228 53.609700 2.258019
148 1 4.948428 55.367412 4.065519
149 1 4.522205 57.126404 5.873019
150 1 8.833404 46.949052 -6.779481
151 1 8.406237 48.724003 -4.971981
152 1 7.974491 50.497021 -3.164481
153 1 7.545456 52.263381 -1.356981
154 1 7.121284 54.024259 0.450519
155 1 6.695265 55.787227 2.258019
156 1 6.256972 57.556173 4.065519
157 1 5.811861 59.319670 5.873019
158 1 10.150574 49.142199 -6.779481
159 1 9.723459 50.911924 -4.971981
160 1 9.297983 52.678509 -3.164481
161 1 8.871092 54.443810 -1.356981
162 1 8.438772 56.210039 0.450519
163 1 8.003127 57.975201 2.258019
164 1 11.473406 51.330466 -6.779481
165 1 11.047074 53.097586 -4.971981
166 1 10.618114 54.864461 -3.164481
167 1 10.186666 56.630094 -1.356981
168 1 9.755903 58.392884 0.450519
169 1 12.795708 53.519304 -6.779481
170 1 12.366794 55.285316 -4.971981
171 1 11.937527 57.049781 -3.164481
172 1 11.508818 58.812276 -1.356981
173 1 14.117441 55.707423 -6.779481
174 1 13.689176 57.470972 -4.971981
175 1 13.260667 59.233606 -3.164481
176 1 15.441099 57.894143 -6.779481
177 2 0.823990 27.920142 -6.779481
178 2 -0.373924 30.040403 -3.164481
179 1 1.954751 30.188390 -6.779481
180 2 0.769394 31.711487 -4.971981
181 2 0.791111 33.608270 -3.164481
182 2 0.621303 35.651095 -1.356981
183 1 0.271629 37.480030 0.450519
184 1 2.991408 32.394945 -6.779481
185 1 2.555988 34.076048 -4.971981
186 1 2.259195 35.917180 -3.164481
187 1 1.847277 37.863201 -1.356981
188 1 1.298597 39.637691 0.450519
189 1 0.938161 41.272442 2.258019
190 1 0.636496 43.140884 4.065519
191 1 0.273382 44.945924 5.873019
192 1 4.366263 34.572613 -6.779482
193 1 3.933758 36.356530 -4.971981
194 1 3.522799 38.185805 -3.164482
195 1 3.131638 39.988871 -1.356982
196 1 2.723187 41.736048 0.450518
197 1 2.324562 43.502247 2.258019
198 1 1.865200 45.369712 4.065519
199 1 1.313320 47.108888 5.873019
200 1 5.681065 36.798498 -6.779482
201 1 5.267937 38.574233 -4.971982
202 1 4.876299 40.364769 -3.164482
203 1 4.468396 42.153906 -1.356982
204 1 4.019997 43.947046 0.450519
205 1 3.572968 45.733560 2.258019
206 1 3.165494 47.493202 4.065519
207 1 2.745337 49.219480 5.873019
208 1 7.025746 38.998146 -6.779482
209 1 6.612771 40.776332 -4.971982
210 1 6.189934 42.568602 -3.164482
211 1 5.756260 44.354818 -1.356981
212 1 5.334452 46.125939 0.450519
213 1 4.924316 47.891813 2.258019
214 1 4.500893 49.656434 4.065519
215 1 4.044339 51.432681 5.873019
216 1 8.353417 41.204561 -6.779482
217 1 7.927134 42.983092 -4.971982
218 1 7.505407 44.760578 -3.164481
219 1 7.087958 46.533132 -1.356981
220 1 6.667126 48.305673 0.450519
221 1 6.232319 50.081989 2.258019
222 1 5.789382 51.851350 4.065519
223 1 5.362228 53.609700 5.873019
224 1 9.676294 43.404494 -6.779482
225 1 9.254808 45.175745 -4.971981
226 1 8.833404 46.949052 -3.164481
227 1 8.406237 48.724003 -1.356981
228 1 7.974491 50.497021 0.450519
229 1 7.545456 52.263381 2.258019
230 1 7.121284 54.024259 4.065519
231 1 6.695265 55.787227 5.873019
232 1 11.003922 45.599482 -6.779481
233 1 10.578095 47.370311 -4.971981
234 1 10.150574 49.142199 -3.164481
235 1 9.723459 50.911924 -1.356981
236 1 9.297983 52.678509 0.450519
237 1 8.871092 54.443810 2.258019
238 1 8.438772 56.210039 4.065519
239 1 8.003127 57.975201 5.873019
240 1 12.326372 47.794885 -6.779481
241 1 11.899348 49.562846 -4.971981
242 1 11.473406 51.330466 -3.164481
243 1 11.047074 53.097586 -1.356981
244 1 10.618114 54.864461 0.450519
245 1 10.186666 56.630094 2.258019
246 1 9.755903 58.392884 4.065519
247 1 13.650309 49.987159 -6.779481
248 1 13.223364 51.752953 -4.971981
249 1 12.795708 53.519304 -3.164481
250 1 12.366794 55.285316 -1.356981
251 1 11.937527 57.049781 0.450519
252 1 11.508818 58.812276 2.258019
253 1 14.974204 52.178480 -6.779481
254 1 14.545847 53.943025 -4.971981
255 1 14.117441 55.707423 -3.164481
256 1 13.689176 57.470972 -1.356981
257 1 13.260667 59.233606 0.450519
258 1 16.297733 54.368763 -6.779481
259 1 15.869361 56.131523 -4.971981
260 1 15.441099 57.894143 -3.164481
261 1 17.622234 56.557682 -6.779481
262 1 17.193656 58.319137 -4.971981
263 1 18.947176 58.745741 -6.779481
264 2 -0.340384 22.605180 -4.971981
265 2 0.793485 24.233268 -6.779481
266 2 0.840726 26.090497 -4.971981
267 2 0.823990 27.920143 -3.164481
268 2 -0.373924 30.040403 0.450519
269 1 2.717989 26.488181 -6.779482
270 1 2.339094 28.393353 -4.971981
271 1 1.954751 30.188390 -3.164481
272 2 0.769394 31.711487 -1.356981
273 2 0.791111 33.608270 0.450519
274 2 0.621303 35.651095 2.258019
275 1 0.271629 37.480030 4.065519
276 1 4.028487 28.797776 -6.779481
277 1 3.542367 30.661695 -4.971981
278 1 2.991408 32.394945 -3.164481
279 1 2.555988 34.076048 -1.356981
280 1 2.259195 35.917180 0.450519
281 1 1.847277 37.863201 2.258019
282 1 1.298597 39.637691 4.065519
283 1 0.938161 41.272442 5.873019
284 1 5.248873 31.072968 -6.779482
285 1 4.801270 32.841194 -4.971982
286 1 4.366263 34.572613 -3.164482
287 1 3.933758 36.356530 -1.356981
288 1 3.522799 38.185805 0.450518
289 1 3.131638 39.988871 2.258018
290 1 2.723187 41.736048 4.065518
291 1 2.324562 43.502247 5.873019
292 1 6.565125 33.272613 -6.779482
293 1 6.123695 35.035830 -4.971982
294 1 5.681065 36.798498 -3.164482
295 1 5.267937 38.574233 -1.356982
296 1 4.876299 40.364769 0.450518
297 1 4.468396 42.153906 2.258018
298 1 4.019997 43.947046 4.065519
299 1 3.572968 45.733560 5.873019
300 1 7.879493 35.475771 -6.779482
301 1 7.446351 37.235258 -4.971982
302 1 7.025746 38.998146 -3.164482
303 1 6.612771 40.776332 -1.356982
304 1 6.189934 42.568602 0.450518
305 1 5.756260 44.354818 2.258019
306 1 5.334452 46.125939 4.065519
307 1 4.924316 47.891813 5.873019
308 1 9.208109 37.671139 -6.779482
309 1 8.780573 39.433386 -4.971982
310 1 8.353417 41.204561 -3.164482
311 1 7.927134 42.983092 -1.356982
312 1 7.505407 44.760578 0.450519
313 1 7.087958 46.533132 2.258019
314 1 6.667126 48.305673 4.065519
315 1 6.232319 50.081989 5.873019
316 1 10.533605 39.870324 -6.779482
317 1 10.102754 41.635737 -4.971982
318 1 9.676294 43.404494 -3.164482
319 1 9.254808 45.175745 -1.356981
320 1 8.833404 46.949052 0.450519
321 1 8.406237 48.724003 2.258019
322 1 7.974491 50.497021 4.065519
323 1 7.545456 52.263381 5.873019
324 1 11.857005 42.068234 -6.779482
325 1 11.429241 43.832133 -4.971982
326 1 11.003922 45.599482 -3.164481
327 1 10.578095 47.370311 -1.356981
328 1 10.150574 49.142199 0.450519
329 1 9.723459 50.911924 2.258019
330 1 9.297983 52.678509 4.065519
331 1 8.871092 54.443810 5.873019
332 1 13.182950 44.263670 -6.779482
333 1 12.754345 46.027979 -4.971981
334 1 12.326372 47.794885 -3.164481
335 1 11.899348 49.562846 -1.356981
336 1 11.473406 51.330466 0.450519
337 1 11.047074 53.097586 2.258019
338 1 10.618114 54.864461 4.065519
339 1 10.186666 56.630094 5.873019
340 1 14.506925 46.458847 -6.779481
341 1 14.077901 48.222327 -4.971981
342 1 13.650309 49.987159 -3.164481
343 1 13.223364 51.752953 -1.356981
344 1 12.795708 53.519304 0.450519
345 1 12.366794 55.285316 2.258019
346 1 11.937527 57.049781 4.065519
347 1 11.508818 58.812276 5.873019
348 1 15.831305 48.652232 -6.779481
349 1 15.402506 50.414693 -4.971981
350 1 14.974204 52.178480 -3.164481
351 1 14.545847 53.943025 -1.356981
352 1 14.117441 55.707423 0.450519
353 1 13.689176 57.470972 2.258019
354 1 13.260667 59.233606 4.065519
355 1 17.155832 50.844518 -6.779481
356 1 16.726527 52.606248 -4.971981
357 1 16.297733 54.368763 -3.164481
358 1 15.869361 56.131523 -1.356981
359 1 15.441099 57.894143 0.450519
360 1 18.480272 53.035793 -6.779481
361 1 18.050990 54.796470 -4.971981
362 1 17.622234 56.557682 -3.164481
363 1 17.193656 58.319137 -1.356981
364 1 19.805305 55.225888 -6.779481
365 1 19.376056 56.985621 -4.971981
366 1 18.947176 58.745741 -3.164481
367 1 21.130835 57.415034 -6.779481
368 1 20.701698 59.173808 -4.971981
369 2 0.857874 18.633975 -6.779481
370 2 0.846883 20.461742 -4.971981
371 2 -0.340384 22.605180 -1.356981
372 1 2.375146 20.901315 -6.779481
373 1 1.993289 22.693877 -4.971982
374 2 0.793486 24.233268 -3.164481
375 2 0.840726 26.090497 -1.356981
376 2 0.823990 27.920142 0.450519
377 2 -0.373924 30.040403 4.065519
378 1 3.600351 23.149122 -6.779482
379 1 3.073147 24.859377 -4.971982
380 1 2.717990 26.488181 -3.164482
381 1 2.339094 28.393353 -1.356981
382 1 1.954751 30.188390 0.450519
383 2 0.769394 31.711487 2.258019
384 2 0.791111 33.608270 4.065519
385 2 0.621303 35.651095 5.873019
386 1 4.914135 25.300282 -6.779482
387 1 4.460232 27.036828 -4.971982
388 1 4.028487 28.797776 -3.164481
389 1 3.542367 30.661695 -1.356981
390 1 2.991408 32.394945 0.450519
391 1 2.555988 34.076048 2.258019
392 1 2.259195 35.917180 4.065519
393 1 1.847277 37.863201 5.873019
394 1 6.202569 27.516289 -6.779482
395 1 5.720860 29.293831 -4.971982
396 1 5.248873 31.072968 -3.164482
397 1 4.801270 32.841194 -1.356982
398 1 4.366263 34.572613 0.450518
399 1 3.933758 36.356530 2.258019
400 1 3.522799 38.185805 4.065518
401 1 3.131638 39.988871 5.873018
402 1 7.458077 29.750075 -6.779482
403 1 7.002503 31.512446 -4.971982
404 1 6.565125 33.272613 -3.164482
405 1 6.123695 35.035830 -1.356982
406 1 5.681065 36.798498 0.450518
407 1 5.267937 38.574233 2.258018
408 1 4.876299 40.364769 4.065518
409 1 4.468396 42.153906 5.873018
410 1 8.761473 31.954724 -6.779482
411 1 8.319393 33.714486 -4.971982
412 1 7.879493 35.475771 -3.164482
413 1 7.446351 37.235258 -1.356982
414 1 7.025746 38.998146 0.450518
415 1 6.612771 40.776332 2.258018
416 1 6.189934 42.568602 4.065518
417 1 5.756260 44.354818 5.873019
418 1 10.076185 34.155011 -6.779482
419 1 9.639250 35.912813 -4.971982
420 1 9.208109 37.671139 -3.164482
421 1 8.780573 39.433386 -1.356982
422 1 8.353417 41.204561 0.450518
423 1 7.927134 42.983092 2.258018
424 1 7.505407 44.760578 4.065519
425 1 7.087958 46.533132 5.873019
426 1 11.398901 36.350758 -6.779482
427 1 10.965778 38.108839 -4.971982
428 1 10.533605 39.870324 -3.164482
429 1 10.102754 41.635737 -1.356982
430 1 9.676294 43.404494 0.450518
431 1 9.254808 45.175745 2.258019
432 1 8.833404 46.949052 4.065519
433 1 8.406237 48.724003 5.873019
434 1 12.722077 38.547171 -6.779482
435 1 12.288320 40.306725 -4.971982
436 1 11.857005 42.068234 -3.164482
437 1 11.429241 43.832133 -1.356982
438 1 11.003922 45.599482 0.450519
439 1 10.578095 47.370311 2.258019
440 1 10.150574 49.142199 4.065519
441 1 9.723459 50.911924 5.873019
442 1 14.044665 40.743065 -6.779482
443 1 13.612768 42.502278 -4.971982
444 1 13.182950 44.263670 -3.164482
445 1 12.754345 46.027979 -1.356981
446 1 12.326372 47.794885 0.450519
447 1 11.899348 49.562846 2.258019
448 1 11.473406 51.330466 4.065519
449 1 11.047074 53.097586 5.873019
450 1 15.368828 42.937598 -6.779482
451 1 14.937305 44.697197 -4.971982
452 1 14.506925 46.458847 -3.164481
453 1 14.077901 48.222327 -1.356981
454 1 13.650309 49.987159 0.450519
455 1 13.223364 51.752953 2.258019
456 1 12.795708 53.519304 4.065519
457 1 12.366794 55.285316 5.873019
458 1 16.692588 45.131739 -6.779481
459 1 16.261257 46.891249 -4.971981
460 1 15.831305 48.652232 -3.164481
461 1 15.402506 50.414693 -1.356981
462 1 14.974204 52.178480 0.450519
463 1 14.545847 53.943025 2.258019
464 1 14.117441 55.707423 4.065519
465 1 13.689176 57.470972 5.873019
466 1 18.016675 47.324847 -6.779481
467 1 17.585791 49.084006 -4.971981
468 1 17.155832 50.844518 -3.164481
469 1 16.726527 52.606248 -1.356981
470 1 16.297733 54.368763 0.450519
471 1 15.869361 56.131523 2.258019
472 1 15.441099 57.894143 4.065519
473 1 19.341095 49.517082 -6.779481
474 1 18.910283 51.275923 -4.971981
475 1 18.480272 53.035793 -3.164481
476 1 18.050990 54.796470 -1.356981
477 1 17.622234 56.557682 0.450519
478 1 17.193656 58.319137 2.258019
479 1 20.665707 51.708489 -6.779481
480 1 20.235129 53.466793 -4.971981
481 1 19.805305 55.225888 -3.164481
482 1 19.376056 56.985621 -1.356981
483 1 18.947176 58.745741 0.450519
484 1 21.990835 53.898960 -6.779481
485 1 21.560515 55.656686 -4.971981
486 1 21.130835 57.415034 -3.164481
487 1 20.701698 59.173808 -1.356981
488 1 23.316505 56.088583 -6.779481
489 1 22.886478 57.845677 -4.971981
490 1 24.642840 58.277367 -6.779481
491 2 0.861198 13.008143 -6.779482
492 2 -0.320935 15.161907 -3.164481
493 1 2.013617 15.227468 -6.779482
494 2 0.821023 16.779170 -4.971981
495 2 0.857874 18.633975 -3.164481
496 2 0.846883 20.461742 -1.356981
497 2 -0.340384 22.605180 2.258019
498 1 3.092650 17.388884 -6.779482
499 1 2.737671 19.012828 -4.971982
500 1 2.375146 20.901315 -3.164481
501 1 1.993289 22.693877 -1.356982
502 2 0.793485 24.233268 0.450519
503 2 0.840726 26.090497 2.258019
504 2 0.823990 27.920143 4.065519
505 2 -0.373924 30.040403 -6.779481
506 1 4.495415 19.548857 -6.779482
507 1 4.071431 21.301706 -4.971982
508 1 3.600351 23.149122 -3.164482
509 1 3.073147 24.859377 -1.356982
510 1 2.717989 26.488181 0.450518
511 1 2.339094 28.393353 2.258019
512 1 1.954751 30.188390 4.065519
513 2 0.769394 31.711487 5.873019
514 1 5.778522 21.788658 -6.779482
515 1 5.325567 23.551992 -4.971982
516 1 4.914135 25.300282 -3.164482
517 1 4.460232 27.036828 -1.356982
518 1 4.028487 28.797776 0.450519
519 1 3.542367 30.661695 2.258019
520 1 2.991408 32.394945 4.065519
521 1 2.555988 34.076048 5.873019
522 1 7.089069 23.993223 -6.779482
523 1 6.653865 25.753134 -4.971982
524 1 6.202569 27.516289 -3.164482
525 1 5.720860 29.293831 -1.356982
526 1 5.248873 31.072968 0.450518
527 1 4.801270 32.841194 2.258018
528 1 4.366263 34.572613 4.065518
529 1 3.933758 36.356530 5.873019
530 1 8.388283 26.211249 -6.779482
531 1 7.926286 27.982355 -4.971982
532 1 7.458077 29.750075 -3.164482
533 1 7.002503 31.512446 -1.356982
534 1 6.565125 33.272613 0.450518
535 1 6.123695 35.035830 2.258018
536 1 5.681065 36.798498 4.065518
537 1 5.267937 38.574233 5.873018
538 1 9.664099 28.433923 -6.779482
539 1 9.208711 30.196387 -4.971982
540 1 8.761473 31.954724 -3.164482
541 1 8.319393 33.714486 -1.356982
542 1 7.879493 35.475771 0.450518
543 1 7.446351 37.235258 2.258018
544 1 7.025746 38.998146 4.065518
545 1 6.612771 40.776332 5.873018
546 1 10.962774 30.639444 -6.779482
547 1 10.517893 32.397312 -4.971982
548 1 10.076185 34.155011 -3.164482
549 1 9.639250 35.912813 -1.356982
550 1 9.208109 37.671139 0.450518
551 1 8.780573 39.433386 2.258018
552 1 8.353417 41.204561 4.065518
553 1 7.927134 42.983092 5.873018
554 1 12.274708 32.838303 -6.779482
555 1 11.834909 34.594437 -4.971982
556 1 11.398901 36.350758 -3.164482
557 1 10.965778 38.108839 -1.356982
558 1 10.533605 39.870324 0.450518
559 1 10.102754 41.635737 2.258018
560 1 9.676294 43.404494 4.065518
561 1 9.254808 45.175745 5.873019
562 1 13.593589 35.033767 -6.779482
563 1 13.157109 36.789659 -4.971982
564 1 12.722077 38.547171 -3.164482
565 1 12.288320 40.306725 -1.356982
566 1 11.857005 42.068234 0.450518
567 1 11.429241 43.832133 2.258018
568 1 11.003922 45.599482 4.065519
569 1 10.578095 47.370311 5.873019
570 1 14.914575 37.228772 -6.779482
571 1 14.478780 38.985313 -4.971982
572 1 14.044665 40.743065 -3.164482
573 1 13.612768 42.502278 -1.356982
574 1 13.182950 44.263670 0.450518
575 1 12.754345 46.027979 2.258019
576 1 12.326372 47.794885 4.065519
577 1 11.899348 49.562846 5.873019
578 1 16.236079 39.423320 -6.779482
579 1 15.801661 41.179805 -4.971982
580 1 15.368828 42.937598 -3.164482
581 1 14.937305 44.697197 -1.356982
582 1 14.506925 46.458847 0.450519
583 1 14.077901 48.222327 2.258019
584 1 13.650309 49.987159 4.065519
585 1 13.223364 51.752953 5.873019
586 1 17.558824 41.616986 -6.779482
587 1 17.125152 43.373684 -4.971982
588 1 16.692588 45.131739 -3.164481
589 1 16.261257 46.891249 -1.356981
590 1 15.831305 48.652232 0.450519
591 1 15.402506 50.414693 2.258019
592 1 14.974204 52.178480 4.065519
593 1 14.545847 53.943025 5.873019
594 1 18.881884 43.810198 -6.779482
595 1 18.448701 45.566955 -4.971981
596 1 18.016675 47.324847 -3.164481
597 1 17.585791 49.084006 -1.356981
598 1 17.155832 50.844518 0.450519
599 1 16.726527 52.606248 2.258019
600 1 16.297733 54.368763 4.065519
601 1 15.869361 56.131523 5.873019
602 1 20.205397 46.002717 -6.779481
603 1 19.772770 47.759364 -4.971981
604 1 19.341095 49.517082 -3.164481
605 1 18.910283 51.275923 -1.356981
606 1 18.480272 53.035793 0.450519
607 1 18.050990 54.796470 2.258019
608 1 17.622234 56.557682 4.065519
609 1 17.193656 58.319137 5.873019
610 1 21.529383 48.194553 -6.779481
611 1 21.097121 49.951066 -4.971981
612 1 20.665707 51.708489 -3.164481
613 1 20.235129 53.466793 -1.356981
614 1 19.805305 55.225888 0.450519
615 1 19.376056 56.985621 2.258019
616 1 18.947176 58.745741 4.065519
617 1 22.853761 50.385721 -6.779481
618 1 22.421896 52.141961 -4.971981
619 1 21.990835 53.898960 -3.164481
620 1 21.560515 55.656686 -1.356981
621 1 21.130835 57.415034 0.450519
622 1 20.701698 59.173808 2.258019
623 1 24.178680 52.576153 -6.779481
624 1 23.747226 54.332051 -4.971981
625 1 23.316505 56.088583 -3.164481
626 1 22.886478 57.845677 -1.356981
627 1 25.504181 54.765875 -6.779481
628 1 25.073151 56.521372 -4.971981
629 1 24.642840 58.277367 -3.164481
630 1 26.830322 56.954908 -6.779481
631 1 26.399768 58.709957 -4.971981
632 1 28.157123 59.143329 -6.779481
633 2 -0.307370 7.713210 -4.971981
634 2 0.837970 9.326294 -6.779482
635 2 0.870172 11.180595 -4.971982
636 2 0.861198 13.008143 -3.164482
637 2 -0.320935 15.161907 0.450519
638 1 2.750255 11.551864 -6.779482
639 1 2.393815 13.435283 -4.971982
640 1 2.013617 15.227468 -3.164482
641 2 0.821023 16.779170 -1.356981
642 2 0.857874 18.633975 0.450519
643 2 0.846883 20.461742 2.258019
644 2 -0.340384 22.605180 5.873019
645 1 4.091405 13.833484 -6.779482
646 1 3.621762 15.678696 -4.971982
647 1 3.092650 17.388884 -3.164482
648 1 2.737671 19.012828 -1.356982
649 1 2.375146 20.901315 0.450519
650 1 1.993289 22.693877 2.258018
651 2 0.793486 24.233268 4.065519
652 2 0.840726 26.090497 5.873019
653 1 5.349255 16.078325 -6.779482
654 1 4.940087 17.821952 -4.971982
655 1 4.495415 19.548857 -3.164482
656 1 4.071431 21.301706 -1.356982
657 1 3.600351 23.149122 0.450518
658 1 3.073147 24.859377 2.258018
659 1 2.717990 26.488181 4.065518
660 1 2.339094 28.393353 5.873019
661 1 6.689948 18.268098 -6.779482
662 1 6.247605 20.023104 -4.971982
663 1 5.778522 21.788658 -3.164482
664 1 5.325567 23.551992 -1.356982
665 1 4.914135 25.300282 0.450518
666 1 4.460232 27.036828 2.258018
667 1 4.028487 28.797776 4.065519
668 1 3.542367 30.661695 5.873019
669 1 7.981580 20.484729 -6.779482
670 1 7.527342 22.241786 -4.971982
671 1 7.089069 23.993223 -3.164482
672 1 6.653865 25.753134 -1.356982
673 1 6.202569 27.516289 0.450518
674 1 5.720860 29.293831 2.258018
675 1 5.248873 31.072968 4.065518
676 1 4.801270 32.841194 5.873018
677 1 9.281044 22.691794 -6.779482
678 1 8.837321 24.448372 -4.971982
679 1 8.388283 26.211249 -3.164482
680 1 7.926286 27.982355 -1.356982
681 1 7.458077 29.750075 0.450518
682 1 7.002503 31.512446 2.258018
683 1 6.565125 33.272613 4.065518
684 1 6.123695 35.035830 5.873018
685 1 10.578758 24.904184 -6.779482
686 1 10.123056 26.668451 -4.971982
687 1 9.664099 28.433923 -3.164482
688 1 9.208711 30.196387 -1.356982
689 1 8.761473 31.954724 0.450518
690 1 8.319393 33.714486 2.258018
691 1 7.879493 35.475771 4.065518
692 1 7.446351 37.235258 5.873018
693 1 11.865106 27.119384 -6.779482
694 1 11.411713 28.880428 -4.971982
695 1 10.962774 30.639444 -3.164482
696 1 10.517893 32.397312 -1.356982
697 1 10.076185 34.155011 0.450518
698 1 9.639250 35.912813 2.258018
699 1 9.208109 37.671139 4.065518
700 1 8.780573 39.433386 5.873018
701 1 13.163783 29.324527 -6.779482
702 1 12.717758 31.081736 -4.971982
703 1 12.274708 32.838303 -3.164482
704 1 11.834909 34.594437 -1.356982
705 1 11.398901 36.350758 0.450518
706 1 10.965778 38.108839 2.258018
707 1 10.533605 39.870324 4.065518
708 1 10.102754 41.635737 5.873018
709 1 14.473802 31.523185 -6.779482
710 1 14.032351 33.278532 -4.971982
711 1 13.593589 35.033767 -3.164482
712 1 13.157109 36.789659 -1.356982
713 1 12.722077 38.547171 0.450518
714 1 12.288320 40.306725 2.258018
715 1 11.857005 42.068234 4.065518
716 1 11.429241 43.832133 5.873018
717 1 15.790197 33.718597 -6.779482
718 1 15.351650 35.473319 -4.971982
719 1 14.914575 37.228772 -3.164482
720 1 14.478780 38.985313 -1.356982
721 1 14.044665 40.743065 0.450518
722 1 13.612768 42.502278 2.258018
723 1 13.182950 44.263670 4.065518
724 1 12.754345 46.027979 5.873019
725 1 17.109378 35.912921 -6.779482
726 1 16.672063 37.667754 -4.971982
727 1 16.236079 39.423320 -3.164482
728 1 15.801661 41.179805 -1.356982
729 1 15.368828 42.937598 0.450518
730 1 14.937305 44.697197 2.258018
731 1 14.506925 46.458847 4.065519
732 1 14.077901 48.222327 5.873019
733 1 18.429770 38.106625 -6.779482
734 1 17.993667 39.861400 -4.971982
735 1 17.558824 41.616986 -3.164482
736 1 17.125152 43.373684 -1.356982
737 1 16.692588 45.131739 0.450519
738 1 16.261257 46.891249 2.258019
739 1 15.831305 48.652232 4.065519
740 1 15.402506 50.414693 5.873019
741 1 19.751362 40.299617 -6.779482
742 1 19.316123 42.054464 -4.971982
743 1 18.881884 43.810198 -3.164482
744 1 18.448701 45.566955 -1.356981
745 1 18.016675 47.324847 0.450519
746 1 17.585791 49.084006 2.258019
747 1 17.155832 50.844518 4.065519
748 1 16.726527 52.606248 5.873019
749 1 21.073627 42.492122 -6.779482
750 1 20.639024 44.247011 -4.971981
751 1 20.205397 46.002717 -3.164481
752 1 19.772770 47.759364 -1.356981
753 1 19.341095 49.517082 0.450519
754 1 18.910283 51.275923 2.258019
755 1 18.480272 53.035793 4.065519
756 1 18.050990 54.796470 5.873019
757 1 22.396488 44.684073 -6.779481
758 1 21.962500 46.438919 -4.971981
759 1 21.529383 48.194553 -3.164481
760 1 21.097121 49.951066 -1.356981
761 1 20.665707 51.708489 0.450519
762 1 20.235129 53.466793 2.258019
763 1 19.805305 55.225888 4.065519
764 1 19.376056 56.985621 5.873019
765 1 23.719928 46.875460 -6.779481
766 1 23.286443 48.630233 -4.971981
767 1 22.853761 50.385721 -3.164481
768 1 22.421896 52.141961 -1.356981
769 1 21.990835 53.898960 0.450519
770 1 21.560515 55.656686 2.258019
771 1 21.130835 57.415034 4.065519
772 1 20.701698 59.173808 5.873019
773 1 25.043891 49.066286 -6.779481
774 1 24.610900 50.820905 -4.971981
775 1 24.178680 52.576153 -3.164481
776 1 23.747226 54.332051 -1.356981
777 1 23.316505 56.088583 0.450519
778 1 22.886478 57.845677 2.258019
779 1 26.368436 51.256516 -6.779481
780 1 25.935942 53.010920 -4.971981
781 1 25.504181 54.765875 -3.164481
782 1 25.073151 56.521372 -1.356981
783 1 24.642840 58.277367 0.450519
784 1 27.693591 53.446157 -6.779481
785 1 27.261597 55.200301 -4.971981
786 1 26.830322 56.954908 -3.164481
787 1 26.399768 58.709957 -1.356981
788 1 29.019373 55.635238 -6.779481
789 1 28.587896 57.389087 -4.971981
790 1 28.157123 59.143329 -3.164481
791 1 30.345756 57.823833 -6.779481
792 2 0.880990 3.727672 -6.779482
793 2 0.872620 5.555160 -4.971982
794 2 -0.307370 7.713210 -1.356981
795 1 2.407011 5.977537 -6.779482
796 1 2.027435 7.769456 -4.971982
797 2 0.837970 9.326294 -3.164482
798 2 0.870172 11.180595 -1.356982
799 2 0.861198 13.008143 0.450518
800 2 -0.320935 15.161907 4.065519
801 1 3.635904 8.219248 -6.779482
802 1 3.105605 9.929506 -4.971982
803 1 2.750255 11.551864 -3.164482
804 1 2.393815 13.435283 -1.356982
805 1 2.013617 15.227468 0.450518
806 2 0.821023 16.779170 2.258019
807 2 0.857874 18.633975 4.065519
808 2 0.846883 20.461742 5.873019
809 1 4.955308 10.359560 -6.779482
810 1 4.513358 12.083035 -4.971982
811 1 4.091405 13.833484 -3.164482
812 1 3.621762 15.678696 -1.356982
813 1 3.092650 17.388884 0.450518
814 1 2.737671 19.012828 2.258018
815 1 2.375146 20.901315 4.065519
816 1 1.993289 22.693877 5.873018
817 1 6.268544 12.555342 -6.779482
818 1 5.801104 14.317882 -4.971982
819 1 5.349255 16.078325 -3.164482
820 1 4.940087 17.821952 -1.356982
821 1 4.495415 19.548857 0.450518
822 1 4.071431 21.301706 2.258018
823 1 3.600351 23.149122 4.065518
824 1 3.073147 24.859377 5.873018
825 1 7.553652 14.768696 -6.779482
826 1 7.118636 16.515341 -4.971982
827 1 6.689948 18.268098 -3.164482
828 1 6.247605 20.023104 -1.356982
829 1 5.778522 21.788658 0.450518
830 1 5.325567 23.551992 2.258018
831 1 4.914135 25.300282 4.065518
832 1 4.460232 27.036828 5.873018
833 1 8.874419 16.966788 -6.779482
834 1 8.433075 18.722506 -4.971982
835 1 7.981580 20.484729 -3.164482
836 1 7.527342 22.241786 -1.356982
837 1 7.089069 23.993223 0.450518
838 1 6.653865 25.753134 2.258018
839 1 6.202569 27.516289 4.065518
840 1 5.720860 29.293831 5.873018
841 1 10.175183 19.177859 -6.779482
842 1 9.726170 20.935914 -4.971982
843 1 9.281044 22.691794 -3.164482
844 1 8.837321 24.448372 -1.356982
845 1 8.388283 26.211249 0.450518
846 1 7.926286 27.982355 2.258018
847 1 7.458077 29.750075 4.065518
848 1 7.002503 31.512446 5.873018
849 1 11.474489 21.386383 -6.779482
850 1 11.028217 23.143884 -4.971982
851 1 10.578758 24.904184 -3.164482
852 1 10.123056 26.668451 -1.356982
853 1 9.664099 28.433923 0.450518
854 1 9.208711 30.196387 2.258018