#LAMMPS data file
29248 atoms
2 atom types
-125.2250000000 125.2250000000 xlo xhi
-59.6201706000 59.6201706000 ylo yhi
-7.2300000000 7.2300000000 zlo zhi
0.0 0.0 0.0 xy xz yz

Atoms # atomic

1 1 0.665295 58.092124 -6.777494
2 1 0.287402 52.435019 -6.777495
3 1 1.344607 54.594041 -6.777495
4 1 0.990781 56.218093 -4.969994
5 1 0.665295 58.092124 -3.162494
6 1 2.769693 56.718104 -6.777495
7 1 2.359370 58.470743 -4.969995
8 1 4.065834 58.936829 -6.777496
9 1 0.983047 48.763687 -6.777494
10 1 0.658614 50.638092 -4.969993
11 1 0.287402 52.435019 -3.162495
12 1 2.352186 51.015830 -6.777495
13 1 1.887806 52.870185 -4.969995
14 1 1.344607 54.594041 -3.162495
15 1 0.990781 56.218093 -1.354994
16 1 0.665295 58.092124 0.452506
17 1 3.606950 53.249585 -6.777496
18 1 3.198532 54.997292 -4.969996
19 1 2.769693 56.718104 -3.162495
20 1 2.359370 58.470743 -1.354995
21 1 4.958749 55.414896 -6.777497
22 1 4.527671 57.169831 -4.969996
23 1 4.065834 58.936829 -3.162496
24 1 6.264393 57.609563 -6.777497
25 1 5.816567 59.368055 -4.969997
26 1 0.651734 43.181626 -6.777494
27 1 0.281212 44.979389 -4.969994
28 1 1.880630 45.413529 -6.777495
29 1 1.336593 47.138902 -4.969995
30 1 0.983047 48.763687 -3.162494
31 1 0.658614 50.638092 -1.354993
32 1 0.287402 52.435019 0.452505
33 1 3.190131 47.540567 -6.777496
34 1 2.761911 49.262308 -4.969995
35 1 2.352186 51.015830 -3.162495
36 1 1.887806 52.870185 -1.354995
37 1 1.344607 54.594041 0.452505
38 1 0.990781 56.218093 2.260006
39 1 0.665295 58.092124 4.067506
40 1 4.519314 49.712812 -6.777496
41 1 4.057932 51.481071 -4.969996
42 1 3.606950 53.249585 -3.162496
43 1 3.198532 54.997292 -1.354996
44 1 2.769693 56.718104 0.452505
45 1 2.359370 58.470743 2.260005
46 1 5.807771 51.911313 -6.777497
47 1 5.377303 53.662176 -4.969997
48 1 4.958749 55.414896 -3.162497
49 1 4.527671 57.169831 -1.354996
50 1 4.065834 58.936829 0.452504
51 1 7.138184 54.089037 -6.777498
52 1 6.706934 55.845994 -4.969998
53 1 6.264393 57.609563 -3.162497
54 1 5.816567 59.368055 -1.354997
55 1 8.452696 56.279338 -6.777499
56 1 8.012782 58.038573 -4.969998
57 1 9.767318 58.466225 -6.777499
58 1 0.274791 37.520066 -6.777495
59 1 1.326545 39.680556 -6.777495
60 1 0.973592 41.306798 -4.969994
61 1 0.651734 43.181626 -3.162494
62 1 0.281212 44.979389 -1.354994
63 1 2.752742 41.802254 -6.777495
64 1 2.344410 43.557385 -4.969995
65 1 1.880630 45.413529 -3.162495
66 1 1.336593 47.138902 -1.354995
67 1 0.983047 48.763687 0.452506
68 1 0.658614 50.638092 2.260007
69 1 0.287402 52.435019 4.067505
70 1 4.048908 44.020761 -6.777496
71 1 3.598392 45.791331 -4.969996
72 1 3.190131 47.540567 -3.162496
73 1 2.761911 49.262308 -1.354995
74 1 2.352186 51.015830 0.452505
75 1 1.887806 52.870185 2.260005
76 1 1.344607 54.594041 4.067505
77 1 0.990781 56.218093 5.875006
78 1 5.367542 46.202043 -6.777497
79 1 4.949750 47.956498 -4.969996
80 1 4.519314 49.712812 -3.162496
81 1 4.057932 51.481071 -1.354996
82 1 3.606950 53.249585 0.452504
83 1 3.198532 54.997292 2.260004
84 1 2.769693 56.718104 4.067505
85 1 2.359370 58.470743 5.875005
86 1 6.696955 48.385979 -6.777497
87 1 6.255129 50.151306 -4.969997
88 1 5.807771 51.911313 -3.162497
89 1 5.377303 53.662176 -1.354997
90 1 4.958749 55.414896 0.452503
91 1 4.527671 57.169831 2.260004
92 1 4.065834 58.936829 4.067504
93 1 8.002404 50.579023 -6.777498
94 1 7.567698 52.335667 -4.969998
95 1 7.138184 54.089037 -3.162498
96 1 6.706934 55.845994 -1.354998
97 1 6.264393 57.609563 0.452503
98 1 5.816567 59.368055 2.260003
99 1 9.323426 52.762537 -6.777499
100 1 8.890350 54.519900 -4.969999
101 1 8.452696 56.279338 -3.162499
102 1 8.012782 58.038573 -1.354998
103 1 10.639936 54.950732 -6.777500
104 1 10.202927 56.709393 -4.969999
105 1 9.767318 58.466225 -3.162499
106 1 11.955679 57.138324 -6.777500
107 1 11.521538 58.895086 -4.970000
108 1 13.274325 59.324988 -6.777501
109 1 0.960223 33.844934 -6.777494
110 1 0.643718 35.720507 -4.969994
111 1 0.274791 37.520066 -3.162495
112 1 2.334692 36.092326 -6.777495
113 1 1.872241 37.952049 -4.969995
114 1 1.326545 39.680557 -3.162495
115 1 0.973592 41.306798 -1.354994
116 1 0.651734 43.181626 0.452506
117 1 0.281212 44.979389 2.260006
118 1 3.587325 38.326662 -6.777496
119 1 3.179464 40.078855 -4.969996
120 1 2.752741 41.802254 -3.162495
121 1 2.344410 43.557385 -1.354995
122 1 1.880630 45.413529 0.452505
123 1 1.336593 47.138902 2.260005
124 1 0.983047 48.763687 4.067506
125 1 0.658614 50.638092 5.875007
126 1 4.938212 40.491389 -6.777497
127 1 4.509252 42.250216 -4.969996
128 1 4.048908 44.020761 -3.162496
129 1 3.598392 45.791331 -1.354996
130 1 3.190131 47.540567 0.452504
131 1 2.761911 49.262308 2.260005
132 1 2.352186 51.015830 4.067505
133 1 1.887806 52.870185 5.875005
134 1 6.243586 42.686262 -6.777497
135 1 5.797271 44.448952 -4.969997
136 1 5.367542 46.202043 -3.162497
137 1 4.949750 47.956498 -1.354996
138 1 4.519314 49.712812 0.452504
139 1 4.057932 51.481071 2.260004
140 1 3.606950 53.249585 4.067504
141 1 3.198532 54.997292 5.875004
142 1 7.555696 44.871162 -6.777498
143 1 7.127267 46.626978 -4.969997
144 1 6.696955 48.385979 -3.162497
145 1 6.255129 50.151306 -1.354997
146 1 5.807771 51.911313 0.452503
147 1 5.377303 53.662176 2.260003
148 1 4.958749 55.414896 4.067503
149 1 4.527671 57.169831 5.875004
150 1 8.878124 47.056023 -6.777498
151 1 8.441520 48.817775 -4.969998
152 1 8.002404 50.579023 -3.162498
153 1 7.567698 52.335667 -1.354998
154 1 7.138184 54.089037 0.452502
155 1 6.706934 55.845994 2.260002
156 1 6.264393 57.609563 4.067503
157 1 5.816567 59.368055 5.875003
158 1 10.190428 49.246373 -6.777499
159 1 9.755720 51.005399 -4.969999
160 1 9.323426 52.762537 -3.162499
161 1 8.890350 54.519900 -1.354999
162 1 8.452696 56.279338 0.452501
163 1 8.012782 58.038573 2.260002
164 1 11.508669 51.433078 -6.777500
165 1 11.075311 53.191698 -4.970000
166 1 10.639936 54.950732 -3.162500
167 1 10.202927 56.709393 -1.354999
168 1 9.767318 58.466225 0.452501
169 1 12.825982 53.621401 -6.777501
170 1 12.390772 55.380402 -4.970001
171 1 11.955679 57.138324 -3.162500
172 1 11.521538 58.895086 -1.355000
173 1 14.142718 55.809734 -6.777501
174 1 13.708560 57.567619 -4.970001
175 1 13.274325 59.324988 -3.162501
176 1 15.460967 57.997510 -6.777502
177 1 0.633421 28.248466 -6.777494
178 1 0.267753 30.052111 -4.969995
179 1 1.861137 30.480104 -6.777495
180 1 1.311921 32.215299 -4.969995
181 1 0.960223 33.844934 -3.162494
182 1 0.643718 35.720507 -1.354994
183 1 0.274791 37.520066 0.452505
184 1 3.163500 32.606943 -6.777496
185 1 2.740003 34.333833 -4.969995
186 1 2.334692 36.092326 -3.162495
187 1 1.872241 37.952049 -1.354995
188 1 1.326545 39.680556 0.452505
189 1 0.973592 41.306798 2.260006
190 1 0.651734 43.181626 4.067506
191 1 0.281212 44.979389 5.875006
192 1 4.494791 34.776783 -6.777496
193 1 4.036773 36.551983 -4.969996
194 1 3.587325 38.326662 -3.162496
195 1 3.179464 40.078855 -1.354996
196 1 2.752741 41.802254 0.452505
197 1 2.344410 43.557385 2.260005
198 1 1.880630 45.413529 4.067505
199 1 1.336593 47.138902 5.875005
200 1 5.782332 36.976238 -6.777497
201 1 5.354289 38.733682 -4.969997
202 1 4.938212 40.491389 -3.162497
203 1 4.509252 42.250216 -1.354996
204 1 4.048908 44.020761 0.452504
205 1 3.598392 45.791331 2.260004
206 1 3.190131 47.540567 4.067504
207 1 2.761911 49.262308 5.875005
208 1 7.112059 39.155001 -6.777498
209 1 6.683829 40.917769 -4.969997
210 1 6.243586 42.686262 -3.162497
211 1 5.797271 44.448952 -1.354997
212 1 5.367542 46.202043 0.452503
213 1 4.949750 47.956498 2.260004
214 1 4.519314 49.712812 4.067504
215 1 4.057932 51.481071 5.875004
216 1 8.426487 41.346794 -6.777498
217 1 7.989105 43.111557 -4.969998
218 1 7.555696 44.871162 -3.162498
219 1 7.127267 46.626978 -1.354997
220 1 6.696955 48.385979 0.452503
221 1 6.255129 50.151306 2.260003
222 1 5.807771 51.911313 4.067503
223 1 5.377303 53.662176 5.875003
224 1 9.740635 43.535714 -6.777499
225 1 9.309902 45.295983 -4.969999
226 1 8.878124 47.056023 -3.162498
227 1 8.441520 48.817775 -1.354998
228 1 8.002404 50.579023 0.452502
229 1 7.567698 52.335667 2.260002
230 1 7.138184 54.089037 4.067502
231 1 6.706934 55.845994 5.875002
232 1 11.060247 45.723378 -6.777500
233 1 10.626292 47.485223 -4.969999
234 1 10.190428 49.246373 -3.162499
235 1 9.755720 51.005399 -1.354999
236 1 9.323426 52.762537 0.452501
237 1 8.890350 54.519900 2.260001
238 1 8.452696 56.279338 4.067501
239 1 8.012782 58.038573 5.875002
240 1 12.375695 47.913544 -6.777500
241 1 11.941816 49.674017 -4.970000
242 1 11.508669 51.433078 -3.162500
243 1 11.075311 53.191698 -1.355000
244 1 10.639936 54.950732 0.452500
245 1 10.202927 56.709393 2.260001
246 1 9.767318 58.466225 4.067501
247 1 13.693369 50.102288 -6.777501
248 1 13.260175 51.861975 -4.970001
249 1 12.825982 53.621401 -3.162501
250 1 12.390772 55.380402 -1.355001
251 1 11.955679 57.138324 0.452500
252 1 11.521538 58.895086 2.260000
253 1 15.011153 52.291494 -6.777502
254 1 14.577066 54.050991 -4.970002
255 1 14.142718 55.809734 -3.162501
256 1 13.708560 57.567619 -1.355001
257 1 13.274325 59.324988 0.452499
258 1 16.328713 54.480742 -6.777503
259 1 15.894923 56.239403 -4.970002
260 1 15.460967 57.997510 -3.162502
261 1 17.647100 56.669616 -6.777503
262 1 17.213205 58.427826 -4.970003
263 1 18.965611 58.858491 -6.777504
264 1 0.271398 22.581168 -6.777495
265 1 1.299220 24.741190 -6.777495
266 1 0.941084 26.376060 -4.969995
267 1 0.633421 28.248466 -3.162494
268 1 0.267753 30.052112 -1.354995
269 1 2.722014 26.847560 -6.777496
270 1 2.321622 28.613948 -4.969995
271 1 1.861137 30.480104 -3.162495
272 1 1.311921 32.215299 -1.354995
273 1 0.960223 33.844934 0.452506
274 1 0.643718 35.720507 2.260006
275 1 0.274791 37.520066 4.067505
276 1 4.017641 29.063830 -6.777496
277 1 3.570702 30.848578 -4.969996
278 1 3.163500 32.606943 -3.162496
279 1 2.740003 34.333833 -1.354995
280 1 2.334692 36.092326 0.452505
281 1 1.872241 37.952049 2.260005
282 1 1.326545 39.680557 4.067505
283 1 0.973592 41.306798 5.875006
284 1 5.332405 31.247166 -6.777497
285 1 4.920470 33.012642 -4.969997
286 1 4.494791 34.776783 -3.162496
287 1 4.036773 36.551983 -1.354996
288 1 3.587325 38.326662 0.452504
289 1 3.179464 40.078855 2.260004
290 1 2.752741 41.802254 4.067505
291 1 2.344410 43.557385 5.875005
292 1 6.662685 33.432758 -6.777498
293 1 6.226239 35.208115 -4.969997
294 1 5.782332 36.976238 -3.162497
295 1 5.354289 38.733682 -1.354997
296 1 4.938212 40.491389 0.452503
297 1 4.509252 42.250216 2.260004
298 1 4.048908 44.020761 4.067504
299 1 3.598392 45.791331 5.875004
300 1 7.968467 35.629091 -6.777498
301 1 7.538055 37.394536 -4.969998
302 1 7.112059 39.155001 -3.162498
303 1 6.683829 40.917769 -1.354997
304 1 6.243586 42.686262 0.452503
305 1 5.797271 44.448952 2.260003
306 1 5.367542 46.202043 4.067503
307 1 4.949750 47.956498 5.875004
308 1 9.289783 37.816082 -6.777499
309 1 8.860819 39.580932 -4.969999
310 1 8.426487 41.346794 -3.162498
311 1 7.989105 43.111557 -1.354998
312 1 7.555696 44.871162 0.452502
313 1 7.127267 46.626978 2.260003
314 1 6.696955 48.385979 4.067503
315 1 6.255129 50.151306 5.875003
316 1 10.606943 40.007809 -6.777500
317 1 10.173436 41.773062 -4.969999
318 1 9.740635 43.535714 -3.162499
319 1 9.309902 45.295983 -1.354999
320 1 8.878124 47.056023 0.452502
321 1 8.441520 48.817775 2.260002
322 1 8.002404 50.579023 4.067502
323 1 7.567698 52.335667 5.875002
324 1 11.923065 42.199054 -6.777500
325 1 11.491906 43.961600 -4.970000
326 1 11.060247 45.723378 -3.162500
327 1 10.626292 47.485223 -1.354999
328 1 10.190428 49.246373 0.452501
329 1 9.755720 51.005399 2.260001
330 1 9.323426 52.762537 4.067501
331 1 8.890350 54.519900 5.875001
332 1 13.241943 44.389335 -6.777501
333 1 12.809447 46.151750 -4.970001
334 1 12.375695 47.913544 -3.162500
335 1 11.941816 49.674017 -1.355000
336 1 11.508669 51.433078 0.452500
337 1 11.075311 53.191698 2.260000
338 1 10.639936 54.950732 4.067500
339 1 10.202927 56.709393 5.875001
340 1 14.559240 46.580567 -6.777501
341 1 14.126301 48.341916 -4.970001
342 1 13.693369 50.102288 -3.162501
343 1 13.260175 51.861975 -1.355001
344 1 12.825982 53.621401 0.452499
345 1 12.390772 55.380402 2.259999
346 1 11.955679 57.138324 4.067500
347 1 11.521538 58.895086 5.875000
348 1 15.877344 48.771108 -6.777502
349 1 15.444549 50.531512 -4.970002
350 1 15.011153 52.291494 -3.162502
351 1 14.577066 54.050991 -1.355002
352 1 14.142718 55.809734 0.452499
353 1 13.708560 57.567619 2.259999
354 1 13.274325 59.324988 4.067499
355 1 17.195718 50.961581 -6.777503
356 1 16.762380 52.721431 -4.970003
357 1 16.328713 54.480742 -3.162503
358 1 15.894923 56.239403 -1.355002
359 1 15.460967 57.997510 0.452498
360 1 18.514056 53.151926 -6.777504
361 1 18.080677 54.910996 -4.970003
362 1 17.647100 56.669616 -3.162503
363 1 17.213205 58.427826 -1.355003
364 1 19.832869 55.341912 -6.777505
365 1 19.399372 57.100377 -4.970004
366 1 18.965611 58.858491 -3.162504
367 1 21.151913 57.531692 -6.777505
368 1 20.718311 59.289570 -4.970005
369 2 0.800323 18.705195 -6.777494
370 2 0.623717 20.753743 -4.969994
371 1 0.271398 22.581167 -3.162495
372 1 2.262543 21.027305 -6.777495
373 1 1.847375 22.971415 -4.969996
374 1 1.299220 24.741190 -3.162495
375 1 0.941084 26.376060 -1.354995
376 1 0.633421 28.248466 0.452506
377 1 0.267753 30.052111 2.260005
378 1 3.525014 23.300354 -6.777496
379 1 3.133449 25.100673 -4.969996
380 1 2.722014 26.847560 -3.162496
381 1 2.321622 28.613948 -1.354995
382 1 1.861137 30.480104 0.452505
383 1 1.311921 32.215299 2.260005
384 1 0.960223 33.844934 4.067506
385 1 0.643718 35.720507 5.875006
386 1 4.877684 25.484679 -6.777497
387 1 4.467336 27.272168 -4.969997
388 1 4.017641 29.063830 -3.162496
389 1 3.570702 30.848578 -1.354996
390 1 3.163500 32.606943 0.452504
391 1 2.740003 34.333833 2.260005
392 1 2.334692 36.092326 4.067505
393 1 1.872241 37.952049 5.875005
394 1 6.189791 27.693433 -6.777498
395 1 5.754959 29.477512 -4.969997
396 1 5.332405 31.247166 -3.162497
397 1 4.920470 33.012642 -1.354997
398 1 4.494791 34.776783 0.452504
399 1 4.036773 36.551983 2.260004
400 1 3.587325 38.326662 4.067504
401 1 3.179464 40.078855 5.875004
402 1 7.504672 29.889927 -6.777498
403 1 7.085457 31.661122 -4.969998
404 1 6.662685 33.432758 -3.162498
405 1 6.226239 35.208115 -1.354997
406 1 5.782332 36.976238 0.452503
407 1 5.354289 38.733682 2.260003
408 1 4.938212 40.491389 4.067503
409 1 4.509252 42.250216 5.875004
410 1 8.830799 32.083616 -6.777499
411 1 8.401734 33.857256 -4.969999
412 1 7.968467 35.629091 -3.162498
413 1 7.538055 37.394536 -1.354998
414 1 7.112059 39.155001 0.452502
415 1 6.683829 40.917769 2.260003
416 1 6.243586 42.686262 4.067503
417 1 5.797271 44.448952 5.875003
418 1 10.146094 34.281713 -6.777499
419 1 9.717162 36.050263 -4.969999
420 1 9.289783 37.816082 -3.162499
421 1 8.860819 39.580932 -1.354999
422 1 8.426487 41.346794 0.452502
423 1 7.989105 43.111557 2.260002
424 1 7.555696 44.871162 4.067502
425 1 7.127267 46.626978 5.875003
426 1 11.466623 36.475178 -6.777500
427 1 11.038080 38.241489 -4.970000
428 1 10.606943 40.007809 -3.162500
429 1 10.173436 41.773062 -1.354999
430 1 9.740635 43.535714 0.452501
431 1 9.309902 45.295983 2.260001
432 1 8.878124 47.056023 4.067502
433 1 8.441520 48.817775 5.875002
434 1 12.785943 38.669469 -6.777501
435 1 12.354668 40.434886 -4.970001
436 1 11.923065 42.199054 -3.162500
437 1 11.491906 43.961600 -1.355000
438 1 11.060247 45.723378 0.452500
439 1 10.626292 47.485223 2.260001
440 1 10.190428 49.246373 4.067501
441 1 9.755720 51.005399 5.875001
442 1 14.104198 40.863239 -6.777501
443 1 13.673248 42.626566 -4.970001
444 1 13.241943 44.389335 -3.162501
445 1 12.809447 46.151750 -1.355001
446 1 12.375695 47.913544 0.452500
447 1 11.941816 49.674017 2.260000
448 1 11.508669 51.433078 4.067500
449 1 11.075311 53.191698 5.875000
450 1 15.423557 43.056008 -6.777502
451 1 14.991773 44.818450 -4.970002
452 1 14.559240 46.580567 -3.162501
453 1 14.126301 48.341916 -1.355001
454 1 13.693369 50.102288 0.452499
455 1 13.260175 51.861975 2.259999
456 1 12.825982 53.621401 4.067499
457 1 12.390772 55.380402 5.874999
458 1 16.742247 45.248772 -6.777503
459 1 16.309873 47.010179 -4.970002
460 1 15.877344 48.771108 -3.162502
461 1 15.444549 50.531512 -1.355002
462 1 15.011153 52.291494 0.452498
463 1 14.577066 54.050991 2.259998
464 1 14.142718 55.809734 4.067499
465 1 13.708560 57.567619 5.874999
466 1 18.061152 47.440933 -6.777504
467 1 17.628601 49.201374 -4.970003
468 1 17.195718 50.961581 -3.162503
469 1 16.762380 52.721431 -1.355003
470 1 16.328713 54.480742 0.452497
471 1 15.894923 56.239403 2.259998
472 1 15.460967 57.997510 4.067498
473 1 19.380225 49.632716 -6.777504
474 1 18.947255 51.392449 -4.970004
475 1 18.514056 53.151926 -3.162504
476 1 18.080677 54.910996 -1.355003
477 1 17.647100 56.669616 0.452497
478 1 17.213205 58.427826 2.259997
479 1 20.699310 51.824167 -6.777505
480 1 20.266155 53.583153 -4.970005
481 1 19.832869 55.341912 -3.162505
482 1 19.399372 57.100377 -1.355004
483 1 18.965611 58.858491 0.452496
484 1 22.018664 54.015190 -6.777506
485 1 21.585358 55.773531 -4.970006
486 1 21.151913 57.531692 -3.162505
487 1 20.718311 59.289570 -1.355005
488 1 23.338233 56.205858 -6.777507
489 1 22.904810 57.963601 -4.970007
490 1 24.658094 58.396141 -6.777508
491 2 0.835033 13.012558 -6.777494
492 2 -0.367576 15.121127 -3.162492
493 1 1.959345 15.299951 -6.777496
494 2 0.766953 16.805261 -4.969994
495 2 0.800323 18.705195 -3.162494
496 2 0.623717 20.753743 -1.354994
497 1 0.271398 22.581168 0.452505
498 1 3.003079 17.507754 -6.777497
499 1 2.563342 19.187820 -4.969996
500 1 2.262543 21.027304 -3.162495
501 1 1.847375 22.971415 -1.354996
502 1 1.299220 24.741190 0.452505
503 1 0.941084 26.376060 2.260005
504 1 0.633421 28.248466 4.067506
505 1 0.267754 30.052112 5.875005
506 1 4.373728 19.692560 -6.777497
507 1 3.937937 21.474194 -4.969996
508 1 3.525014 23.300354 -3.162496
509 1 3.133449 25.100673 -1.354996
510 1 2.722014 26.847560 0.452504
511 1 2.321622 28.613948 2.260005
512 1 1.861137 30.480104 4.067505
513 1 1.311921 32.215299 5.875005
514 1 5.686629 21.922964 -6.777497
515 1 5.271681 23.696024 -4.969997
516 1 4.877684 25.484679 -3.162497
517 1 4.467336 27.272168 -1.354997
518 1 4.017641 29.063830 0.452504
519 1 3.570702 30.848578 2.260004
520 1 3.163500 32.606943 4.067504
521 1 2.740003 34.333833 5.875005
522 1 7.030078 24.127299 -6.777498
523 1 6.614681 25.903319 -4.969998
524 1 6.189791 27.693433 -3.162498
525 1 5.754959 29.477512 -1.354997
526 1 5.332405 31.247166 0.452503
527 1 4.920470 33.012642 2.260003
528 1 4.494791 34.776783 4.067504
529 1 4.036773 36.551983 5.875004
530 1 8.356168 26.338296 -6.777499
531 1 7.927991 28.114469 -4.969998
532 1 7.504672 29.889927 -3.162498
533 1 7.085457 31.661122 -1.354998
534 1 6.662685 33.432758 0.452502
535 1 6.226239 35.208115 2.260003
536 1 5.782332 36.976238 4.067503
537 1 5.354289 38.733682 5.875003
538 1 9.677848 28.542568 -6.777499
539 1 9.254296 30.311865 -4.969999
540 1 8.830799 32.083616 -3.162499
541 1 8.401734 33.857256 -1.354999
542 1 7.968467 35.629091 0.452502
543 1 7.538055 37.394536 2.260002
544 1 7.112059 39.155001 4.067502
545 1 6.683829 40.917769 5.875003
546 1 11.003635 30.742233 -6.777500
547 1 10.575598 32.511319 -4.970000
548 1 10.146094 34.281713 -3.162499
549 1 9.717162 36.050263 -1.354999
550 1 9.289783 37.816082 0.452501
551 1 8.860819 39.580932 2.260001
552 1 8.426487 41.346794 4.067502
553 1 7.989105 43.111557 5.875002
554 1 12.323989 32.942296 -6.777501
555 1 11.894745 34.708723 -4.970000
556 1 11.466623 36.475178 -3.162500
557 1 11.038080 38.241489 -1.355000
558 1 10.606943 40.007809 0.452500
559 1 10.173436 41.773062 2.260001
560 1 9.740635 43.535714 4.067501
561 1 9.309902 45.295983 5.875001
562 1 13.645440 35.139403 -6.777501
563 1 13.216027 36.903997 -4.970001
564 1 12.785943 38.669469 -3.162501
565 1 12.354668 40.434886 -1.355001
566 1 11.923065 42.199054 0.452500
567 1 11.491906 43.961600 2.260000
568 1 11.060247 45.723378 4.067500
569 1 10.626292 47.485223 5.875001
570 1 14.966262 37.335787 -6.777502
571 1 14.535243 39.099420 -4.970002
572 1 14.104198 40.863239 -3.162501
573 1 13.673248 42.626566 -1.355001
574 1 13.241943 44.389335 0.452499
575 1 12.809447 46.151750 2.259999
576 1 12.375695 47.913544 4.067500
577 1 11.941816 49.674017 5.875000
578 1 16.286164 39.531354 -6.777503
579 1 15.854839 41.293566 -4.970002
580 1 15.423557 43.056008 -3.162502
581 1 14.991773 44.818450 -1.355002
582 1 14.559240 46.580567 0.452499
583 1 14.126301 48.341916 2.259999
584 1 13.693369 50.102288 4.067499
585 1 13.260175 51.861975 5.874999
586 1 17.606299 41.725886 -6.777503
587 1 17.174376 43.487199 -4.970003
588 1 16.742247 45.248772 -3.162503
589 1 16.309873 47.010179 -1.355002
590 1 15.877344 48.771108 0.452498
591 1 15.444549 50.531512 2.259998
592 1 15.011153 52.291494 4.067498
593 1 14.577066 54.050991 5.874998
594 1 18.926031 43.919912 -6.777504
595 1 18.493583 45.680370 -4.970004
596 1 18.061152 47.440933 -3.162504
597 1 17.628601 49.201374 -1.355003
598 1 17.195718 50.961581 0.452497
599 1 16.762380 52.721431 2.259997
600 1 16.328713 54.480742 4.067497
601 1 15.894923 56.239403 5.874998
602 1 20.245713 46.113277 -6.777505
603 1 19.812994 47.872927 -4.970005
604 1 19.380225 49.632716 -3.162504
605 1 18.947255 51.392449 -1.355004
606 1 18.514056 53.151926 0.452496
607 1 18.080677 54.910996 2.259997
608 1 17.647100 56.669616 4.067497
609 1 17.213205 58.427826 5.874997
610 1 21.565432 48.306091 -6.777506
611 1 21.132386 50.065083 -4.970005
612 1 20.699310 51.824167 -3.162505
613 1 20.266155 53.583153 -1.355005
614 1 19.832869 55.341912 0.452495
615 1 19.399372 57.100377 2.259996
616 1 18.965611 58.858491 4.067496
617 1 22.885147 50.498427 -6.777506
618 1 22.451897 52.256778 -4.970006
619 1 22.018664 54.015190 -3.162506
620 1 21.585358 55.773531 -1.355006
621 1 21.151913 57.531692 0.452495
622 1 20.718311 59.289570 2.259995
623 1 24.205006 52.690267 -6.777507
624 1 23.771614 54.448038 -4.970007
625 1 23.338233 56.205858 -3.162507
626 1 22.904810 57.963601 -1.355007
627 1 25.525034 54.881658 -6.777508
628 1 25.091541 56.638890 -4.970008
629 1 24.658094 58.396141 -3.162508
630 1 26.845291 57.072607 -6.777509
631 1 26.411772 58.829321 -4.970009
632 1 28.165847 59.263123 -6.777510
633 2 -0.330936 7.681042 -4.969992
634 2 0.784928 9.323728 -6.777494
635 2 0.857352 11.182041 -4.969994
636 2 0.835033 13.012558 -3.162494
637 2 -0.367575 15.121127 0.452508
638 1 2.737699 11.601529 -6.777496
639 1 2.345155 13.507330 -4.969995
640 1 1.959345 15.299952 -3.162496
641 2 0.766953 16.805261 -1.354994
642 2 0.800323 18.705195 0.452506
643 2 0.623717 20.753743 2.260006
644 1 0.271398 22.581167 4.067505
645 1 4.037955 13.919834 -6.777496
646 1 3.549491 15.778952 -4.969996
647 1 3.003079 17.507754 -3.162497
648 1 2.563342 19.187820 -1.354996
649 1 2.262543 21.027305 0.452505
650 1 1.847375 22.971415 2.260004
651 1 1.299220 24.741190 4.067505
652 1 0.941084 26.376060 5.875005
653 1 5.259842 16.197773 -6.777497
654 1 4.811023 17.962761 -4.969997
655 1 4.373728 19.692560 -3.162497
656 1 3.937937 21.474194 -1.354996
657 1 3.525014 23.300354 0.452504
658 1 3.133449 25.100673 2.260004
659 1 2.722014 26.847560 4.067504
660 1 2.321622 28.613948 5.875005
661 1 6.575273 18.402439 -6.777498
662 1 6.131326 20.162947 -4.969998
663 1 5.686629 21.922964 -3.162497
664 1 5.271681 23.696024 -1.354997
665 1 4.877684 25.484679 0.452503
666 1 4.467336 27.272168 2.260003
667 1 4.017641 29.063830 4.067504
668 1 3.570702 30.848578 5.875004
669 1 7.888186 20.610245 -6.777499
670 1 7.452920 22.366825 -4.969998
671 1 7.030078 24.127299 -3.162498
672 1 6.614681 25.903319 -1.354998
673 1 6.189791 27.693433 0.452502
674 1 5.754959 29.477512 2.260003
675 1 5.332405 31.247166 4.067503
676 1 4.920470 33.012642 5.875003
677 1 9.215551 22.809998 -6.777499
678 1 8.785588 24.569575 -4.969999
679 1 8.356168 26.338296 -3.162499
680 1 7.927991 28.114469 -1.354998
681 1 7.504672 29.889927 0.452502
682 1 7.085457 31.661122 2.260002
683 1 6.662685 33.432758 4.067502
684 1 6.226239 35.208115 5.875003
685 1 10.539512 25.013435 -6.777500
686 1 10.106383 26.776173 -4.969999
687 1 9.677848 28.542568 -3.162499
688 1 9.254296 30.311865 -1.354999
689 1 8.830799 32.083616 0.452501
690 1 8.401734 33.857256 2.260001
691 1 7.968467 35.629091 4.067502
692 1 7.538055 37.394536 5.875002
693 1 11.861409 27.215428 -6.777500
694 1 11.431279 28.976920 -4.970000
695 1 11.003635 30.742233 -3.162500
696 1 10.575598 32.511319 -1.355000
697 1 10.146094 34.281713 0.452501
698 1 9.717162 36.050263 2.260001
699 1 9.289783 37.816082 4.067501
700 1 8.860819 39.580932 5.875001
701 1 13.185423 29.415094 -6.777501
702 1 12.754316 31.177244 -4.970001
703 1 12.323989 32.942296 -3.162501
704 1 11.894745 34.708723 -1.355000
705 1 11.466623 36.475178 0.452500
706 1 11.038080 38.241489 2.260000
707 1 10.606943 40.007809 4.067500
708 1 10.173436 41.773062 5.875001
709 1 14.507123 31.614556 -6.777502
710 1 14.075528 33.376126 -4.970001
711 1 13.645440 35.139403 -3.162501
712 1 13.216027 36.903997 -1.355001
713 1 12.785943 38.669469 0.452499
714 1 12.354668 40.434886 2.259999
715 1 11.923065 42.199054 4.067500
716 1 11.491906 43.961600 5.875000
717 1 15.828833 33.812364 -6.777502
718 1 15.397275 35.573240 -4.970002
719 1 14.966262 37.335787 -3.162502
720 1 14.535243 39.099420 -1.355002
721 1 14.104198 40.863239 0.452499
722 1 13.673248 42.626566 2.259999
723 1 13.241943 44.389335 4.067499
724 1 12.809447 46.151750 5.874999
725 1 17.150156 36.009280 -6.777503
726 1 16.717892 37.769749 -4.970003
727 1 16.286164 39.531354 -3.162503
728 1 15.854839 41.293566 -1.355002
729 1 15.423557 43.056008 0.452498
730 1 14.991773 44.818450 2.259998
731 1 14.559240 46.580567 4.067499
732 1 14.126301 48.341916 5.874999
733 1 18.470829 38.205408 -6.777504
734 1 18.038323 39.965193 -4.970004
735 1 17.606299 41.725886 -3.162503
736 1 17.174376 43.487199 -1.355003
737 1 16.742247 45.248772 0.452497
738 1 16.309873 47.010179 2.259998
739 1 15.877344 48.771108 4.067498
740 1 15.444549 50.531512 5.874998
741 1 19.791415 40.400644 -6.777505
742 1 19.358588 42.159891 -4.970004
743 1 18.926031 43.919912 -3.162504
744 1 18.493583 45.680370 -1.355004
745 1 18.061152 47.440933 0.452496
746 1 17.628601 49.201374 2.259997
747 1 17.195718 50.961581 4.067497
748 1 16.762380 52.721431 5.874997
749 1 21.111718 42.595247 -6.777505
750 1 20.678570 44.353971 -4.970005
751 1 20.245713 46.113277 -3.162505
752 1 19.812994 47.872927 -1.355005
753 1 19.380225 49.632716 0.452496
754 1 18.947255 51.392449 2.259996
755 1 18.514056 53.151926 4.067496
756 1 18.080677 54.910996 5.874997
757 1 22.431892 44.789203 -6.777506
758 1 21.998550 46.547399 -4.970006
759 1 21.565432 48.306091 -3.162506
760 1 21.132386 50.065083 -1.355005
761 1 20.699310 51.824167 0.452495
762 1 20.266155 53.583153 2.259995
763 1 19.832869 55.341912 4.067495
764 1 19.399372 57.100377 5.874996
765 1 23.752038 46.982572 -6.777507
766 1 23.318497 48.740298 -4.970007
767 1 22.885147 50.498427 -3.162506
768 1 22.451897 52.256778 -1.355006
769 1 22.018664 54.015190 0.452494
770 1 21.585358 55.773531 2.259994
771 1 21.151913 57.531692 4.067495
772 1 20.718311 59.289570 5.874995
773 1 25.072170 49.175415 -6.777508
774 1 24.638494 50.932679 -4.970007
775 1 24.205006 52.690267 -3.162507
776 1 23.771614 54.448038 -1.355007
777 1 23.338233 56.205858 0.452493
778 1 22.904810 57.963601 2.259993
779 1 26.392385 51.367743 -6.777509
780 1 25.958625 53.124567 -4.970008
781 1 25.525034 54.881658 -3.162508
782 1 25.091541 56.638890 -1.355008
783 1 24.658094 58.396141 0.452492
784 1 27.712733 53.559592 -6.777510
785 1 27.278926 55.315994 -4.970009
786 1 26.845291 57.072607 -3.162509
787 1 26.411772 58.829321 -1.355009
788 1 29.033270 55.750980 -6.777511
789 1 28.599470 57.506970 -4.970010
790 1 28.165847 59.263123 -3.162510
791 1 30.354058 57.941923 -6.777511
792 2 0.882821 3.725748 -6.777494
793 2 0.864282 5.554779 -4.969994
794 2 -0.330936 7.681041 -1.354992
795 1 2.386841 6.020778 -6.777495
796 1 2.001713 7.810750 -4.969996
797 2 0.784928 9.323728 -3.162494
798 2 0.857352 11.182041 -1.354994
799 2 0.835033 13.012558 0.452506
800 2 -0.367576 15.121127 4.067508
801 1 3.614456 8.271214 -6.777496
802 1 3.094779 9.974933 -4.969996
803 1 2.737699 11.601529 -3.162496
804 1 2.345155 13.507330 -1.354995
805 1 1.959345 15.299951 0.452504
806 2 0.766953 16.805261 2.260006
807 2 0.800323 18.705195 4.067506
808 2 0.623717 20.753743 5.875006
809 1 4.934582 10.426735 -6.777497
810 1 4.475111 12.162434 -4.969997
811 1 4.037954 13.919834 -3.162496
812 1 3.549491 15.778952 -1.354997
813 1 3.003079 17.507754 0.452503
814 1 2.563342 19.187820 2.260004
815 1 2.262543 21.027304 4.067505
816 1 1.847375 22.971415 5.875004
817 1 6.217789 12.650175 -6.777498
818 1 5.733080 14.423424 -4.969997
819 1 5.259842 16.197773 -3.162497
820 1 4.811023 17.962761 -1.354997
821 1 4.373728 19.692560 0.452503
822 1 3.937937 21.474194 2.260004
823 1 3.525014 23.300354 4.067504
824 1 3.133449 25.100673 5.875004
825 1 7.472943 14.887528 -6.777498
826 1 7.015200 16.645646 -4.969998
827 1 6.575273 18.402439 -3.162498
828 1 6.131326 20.162947 -1.354998
829 1 5.686629 21.922964 0.452503
830 1 5.271681 23.696024 2.260003
831 1 4.877684 25.484679 4.067503
832 1 4.467336 27.272168 5.875003
833 1 8.775562 17.096269 -6.777499
834 1 8.330621 18.852289 -4.969999
835 1 7.888186 20.610245 -3.162499
836 1 7.452920 22.366825 -1.354998
837 1 7.030078 24.127299 0.452502
838 1 6.614681 25.903319 2.260002
839 1 6.189791 27.693433 4.067502
840 1 5.754959 29.477512 5.875003
841 1 10.088841 19.300621 -6.777500
842 1 9.649200 21.054785 -4.970000
843 1 9.215551 22.809998 -3.162499
844 1 8.785588 24.569575 -1.354999
845 1 8.356168 26.338296 0.452501
846 1 7.927991 28.114469 2.260002
847 1 7.504672 29.889927 4.067502
848 1 7.085457 31.661122 5.875002
849 1 11.410131 21.500222 -6.777501
850 1 10.974233 23.254927 -4.970000
851 1 10.539512 25.013435 -3.162500
852 1 10.106383 26.776173 -1.354999
853 1 9.677848 28.542568 0.452501
854 1 9.254296 30.311865 2.260001
855 1 8.830799 32.083616 4.067501