LAMMPS data file via write_data, version 29 Aug 2024, timestep = 513, units = metal

29248 atoms
2 atom types

-100.1 100.1 xlo xhi
-59.6201706 59.6201706 ylo yhi
-7.23 7.23 zlo zhi
0 0 0 xy xz yz

Masses

1 63.55
2 63.55

Atoms # atomic

1 2 -0.2897125918720036 -59.33875929871049 -6.7832038040337155 0 0 1
2 2 -0.2897132991138136 52.44906011614734 -4.97570368956344 0 0 0
3 2 0.8779088373308213 55.889472508203305 -4.975702309731058 0 0 0
4 2 0.8779093285537414 57.71655537501169 -3.1682023488238973 0 0 0
5 2 0.8779093671513039 57.71655523613213 0.44679766509605895 0 0 0
6 1 2.7565481537141636 56.230689114410474 -6.783201081915384 0 0 0
7 1 2.420235177220192 58.10712694853135 -4.975701674920822 0 0 0
8 1 4.116028385868319 58.493244781742895 -6.783200860694989 0 0 0
9 2 0.8779090176965667 50.26403426943251 -4.975702187546558 0 0 0
10 2 0.8779088937006634 -55.898347613400674 -6.7832023740723235 0 0 1
11 2 -0.28971348196752444 52.449060217670045 -1.3607036921153133 0 0 0
12 1 2.4202344538923626 50.65460650330356 -6.783201552922445 0 0 0
13 1 2.045535312692053 52.44905140164365 -4.975701274605371 0 0 0
14 2 0.877914586501845 54.03583108472308 -3.1682023199403186 0 0 0
15 2 0.8779088516964322 55.889472525090575 -1.3607022950241674 0 0 0
16 2 0.877909330419115 57.716555308286935 4.061797663650883 0 0 0
17 1 3.649418820475688 52.89024371900269 -6.783200913310241 0 0 0
18 1 3.111037063110217 54.60801740396197 -4.97570087466346 0 0 0
19 1 2.7565481576401965 56.23068911454644 -3.168201065971179 0 0 0
20 1 2.420235181576601 58.10712693872399 -1.3607016559713065 0 0 0
21 1 4.964178486320435 55.02177955450468 -6.783200418044384 0 0 0
22 1 4.530621600945295 56.74230921312783 -4.97570051964349 0 0 0
23 1 4.116028388457124 58.493244787599586 -3.1682008637887553 0 0 0
24 1 6.2884490979716645 57.202306828317795 -6.783199951396253 0 0 0
25 1 5.824431059079032 58.96639149132414 -4.9757003029061115 0 0 0
26 2 0.8779158493987751 -57.75198898995075 5.869297629090812 0 0 0
27 2 -0.2897143850632773 44.99653846457203 -3.16820345298364 0 0 0
28 1 2.0455345232927726 44.996531108274745 -6.783201009111113 0 0 0
29 2 0.8779122170168705 46.58331014246868 -4.975702089499256 0 0 0
30 2 0.8779084388511933 48.436951497430464 -3.1682021135484235 0 0 0
31 2 0.877909135073935 50.26403419993759 -1.3607021816566898 0 0 0
32 2 -0.2897134850651497 52.44906017907996 2.2542963124264976 0 0 0
33 1 3.1110367210334857 47.1554968649342 -6.783200633167545 0 0 0
34 1 2.7565477471490567 48.77816866935412 -4.975700849679169 0 0 0
35 1 2.420234457257081 50.65460650092189 -3.1682014928005295 0 0 0
36 1 2.0455354302138318 52.449051397063236 -1.3607012694804816 0 0 0
37 2 0.8779145829725223 54.035831090273284 0.44679767618625155 0 0 0
38 2 0.8779088377418844 55.889472521286955 2.2542976830396393 0 0 0
39 2 0.8779093670623297 57.71655536498175 -6.783202330921533 0 0 1
40 1 4.530621214173692 49.2897888978348 -6.783200308068994 0 0 0
41 1 4.116027946531062 51.04072447262549 -4.975700709395254 0 0 0
42 1 3.6494188051709386 52.89024371277264 -3.1682009182746746 0 0 0
43 1 3.1110370509153285 54.60801741197077 -1.3607008858147887 0 0 0
44 1 2.7565481125233333 56.23068915354265 0.4467989159592989 0 0 0
45 1 2.4202351939848086 58.1071269502148 2.2542983232064655 0 0 0
46 1 5.824430791449785 51.51387112645596 -6.783200152135577 0 0 0
47 1 5.372813658369864 53.27752974243955 -4.975700282318829 0 0 0
48 1 4.964178490377563 55.02177955275611 -3.1682004099078154 0 0 0
49 1 4.530621590715469 56.74230920190569 -1.3607005216881811 0 0 0
50 1 4.11602834596188 58.49324480850236 0.44679913716697384 0 0 0
51 1 7.144794791724323 53.699586249296594 -6.783199766554791 0 0 0
52 1 6.722986413774024 55.44972260014428 -4.975699888647175 0 0 0
53 1 6.288449100782557 57.20230682830188 -3.168199956294338 0 0 0
54 1 5.824431072812089 58.96639149509377 -1.3607003043244308 0 0 0
55 1 8.471672453793346 55.88985112147949 -6.783199541172619 0 0 0
56 1 8.02642684644833 57.6501399406714 -4.975699618379415 0 0 0
57 1 9.776263298230589 58.08747100987426 -6.783199378734662 0 0 0
58 2 -0.28971486387696643 37.544017134518405 -4.97570327029088 0 0 0
59 2 0.877908157790813 40.98443043066178 -4.975701906932615 0 0 0
60 2 0.8779088742043655 42.81151315347801 -3.168201945203228 0 0 0
61 2 0.8779088590668351 42.8115131549466 0.44679805018454377 0 0 0
62 2 -0.2897143592064424 44.99653843899309 0.4467965514498166 0 0 0
63 1 2.7565473897976744 41.32564800663861 -6.783200592477213 0 0 0
64 1 2.4202338757019675 43.20208601396464 -4.975701282690479 0 0 0
65 1 2.045534573317724 44.99653111256165 -3.168201010604684 0 0 0
66 2 0.8779122195497422 46.58331014019361 -1.3607020827920615 0 0 0
67 2 0.8779084303930347 48.436951506710706 0.4467978786394645 0 0 0
68 2 0.8779090186634448 50.26403418783604 2.25429781801498 0 0 0
69 2 -0.28971334705646257 52.44906017329273 5.869296310767576 0 0 0
70 1 4.11602731659184 43.588204069283556 -6.783200457515984 0 0 0
71 1 3.649418228818732 45.43772329274159 -4.975700669714534 0 0 0
72 1 3.111036719339836 47.15549687154135 -3.1682006414264565 0 0 0
73 1 2.756547698413854 48.77816872658351 -1.3607008616155338 0 0 0
74 1 2.4202344658244357 50.65460650540728 0.44679844759014115 0 0 0
75 1 2.045535498241918 52.44905146367173 2.2542987272683206 0 0 0
76 2 0.8779145863146169 54.0358310848868 4.061797688503922 0 0 0
77 2 0.8779088520023777 55.88947252010475 5.869297685198236 0 0 0
78 1 5.372813272525406 45.82500927573627 -6.783200026098041 0 0 0
79 1 4.9641781785728085 47.56925910125798 -4.975700169485026 0 0 0
80 1 4.530621210026538 49.2897888948356 -3.168200311413035 0 0 0
81 1 4.116027915633978 51.04072447508276 -1.360700708897952 0 0 0
82 1 3.6494187783974326 52.89024370724187 0.4467990972946684 0 0 0
83 1 3.1110370496594157 54.60801733319918 2.254299132472869 0 0 0
84 1 2.756548139761179 56.23068912938418 4.061798948834209 0 0 0
85 1 2.4202351759361562 58.10712693815737 5.869298339947232 0 0 0
86 1 6.7229860557059595 47.997202154269466 -6.783199638217687 0 0 0
87 1 6.288448748051721 49.74978645474538 -4.975699740786966 0 0 0
88 1 5.824430797323288 51.513871130059734 -3.1682001560879955 0 0 0
89 1 5.372813671901071 53.27752975116638 -1.3607002872676648 0 0 0
90 1 4.964178503637186 55.02177955662156 0.4467995826561384 0 0 0
91 1 4.530621609218144 56.742309219604685 2.254299482266105 0 0 0
92 1 4.116028367587759 58.49324480291593 4.061799139380997 0 0 0
93 1 8.026426604770393 50.19761948520988 -6.783199401797478 0 0 0
94 1 7.576982197135834 51.952749724420435 -4.975699648545212 0 0 0
95 1 7.144794790636993 53.69958625020288 -3.1681997566716285 0 0 0
96 1 6.722986410242669 55.44972259479419 -1.3606998871050566 0 0 0
97 1 6.288449104272857 57.2023068219704 0.4468000496887173 0 0 0
98 1 5.824431068107685 58.966391487010064 2.254299698154218 0 0 0
99 1 9.338779125845079 52.38668620627788 -6.783199296759319 0 0 0
100 1 8.906205467721676 54.13617778364888 -4.975699362558586 0 0 0
101 1 8.471672453298467 55.88985112449175 -3.1681995423046923 0 0 0
102 1 8.026426849500382 57.65013994552027 -1.3606996244449954 0 0 0
103 1 10.659480824931691 54.576352172595215 -6.783199255139924 0 0 0
104 1 10.218702992682935 56.331888399061846 -4.975699415098894 0 0 0
105 1 9.776263296638845 58.087471009472715 -3.1681993781201876 0 0 0
106 1 11.970390069775974 56.77065860330989 -6.783199257336916 0 0 0
107 1 11.53190720803994 58.523743490919934 -4.975699287477552 0 0 0
108 1 13.2870430353382 58.961262706232965 -6.783199303785511 0 0 0
109 2 0.8779085006419223 35.35899184148462 -4.975701797124513 0 0 0
110 2 0.8779084498804934 35.3589919531046 -1.3607018043693226 0 0 0
111 2 -0.28971460809701455 37.54401702957231 -1.360703268694877 0 0 0
112 1 2.4202335983763135 35.749564927527494 -6.783201107804874 0 0 0
113 1 2.0455343493681397 37.54401011428575 -4.975700789533906 0 0 0
114 2 0.8779121078108432 39.13078901566984 -3.1682018679535493 0 0 0
115 2 0.8779081484372568 40.984430422515 -1.3607019071407582 0 0 0
116 2 0.8779088758550841 42.8115131504215 4.061798054328576 0 0 0
117 2 -0.289714381730505 44.99653846449524 4.061796547451702 0 0 0
118 1 3.6494177880106946 37.98520228792217 -6.783200441976463 0 0 0
119 1 3.111036336511276 39.70297583676676 -4.975700374549125 0 0 0
120 1 2.7565473838629515 41.3256480056824 -3.168200594791995 0 0 0
121 1 2.4202338792370313 43.20208601771959 -1.3607012886716083 0 0 0
122 1 2.0455345824350815 44.99653112775032 0.44679899126007616 0 0 0
123 2 0.8779122165652069 46.583310143233 2.2542979127011153 0 0 0
124 2 0.8779084390290706 48.436951499225465 4.061797872807232 0 0 0
125 2 0.8779145824625516 54.03583108567931 -6.783202321721931 0 0 1
126 1 4.964177774884988 40.116738242280555 -6.783199919152842 0 0 0
127 1 4.530620692554166 41.83726828750948 -4.975700056718113 0 0 0
128 1 4.116027308460232 43.588204071983306 -3.168200457259277 0 0 0
129 1 3.649418218551901 45.43772328340936 -1.3607006636004761 0 0 0
130 1 3.1110367168704585 47.155496839719824 0.446799367021743 0 0 0
131 1 2.756547724651824 48.77816868812976 2.254299153653199 0 0 0
132 1 2.4202344588441775 50.654606501616776 4.061798505688645 0 0 0
133 1 2.0455352949877152 52.449051352190004 5.869298733652559 0 0 0
134 1 6.2884481016282905 42.297265832875034 -6.783199492622364 0 0 0
135 1 5.824430239674243 44.06135060207904 -4.975699904114743 0 0 0
136 1 5.372813278838748 45.82500927782848 -3.1682000286276413 0 0 0
137 1 4.964178192332383 47.56925910132373 -1.3607001708150723 0 0 0
138 1 4.53062121695821 49.28978889933193 0.4467996910168993 0 0 0
139 1 4.116027919959279 51.040724492043005 2.2542992922420586 0 0 0
140 1 3.6494187986522775 52.89024371112313 4.061799015556338 0 0 0
141 1 3.1110370619548036 54.60801746155902 5.869299127547066 0 0 0
142 1 7.5769817353868945 44.50022908998371 -6.7831994000845 0 0 0
143 1 7.144794427734595 46.24706570398724 -4.975699500270512 0 0 0
144 1 6.722986053573038 47.99720215086838 -3.1681996366670444 0 0 0
145 1 6.288448745883883 49.749786449507134 -1.3606997344483196 0 0 0
146 1 5.82443079816214 51.51387112383221 0.4467998472818565 0 0 0
147 1 5.37281365429304 53.27752974435973 2.254299726715358 0 0 0
148 1 4.964178496329438 55.02177955158515 4.061799589573449 0 0 0
149 1 4.530621585661862 56.74230919619057 5.869299485879261 0 0 0
150 1 8.90620512550096 46.68365712524247 -6.783199105303059 0 0 0
151 1 8.471672148438728 48.43733057852506 -4.97569928947964 0 0 0
152 1 8.026426605480694 50.19761948554801 -3.168199404195786 0 0 0
153 1 7.57698219395391 51.95274972729678 -1.3606996491638907 0 0 0
154 1 7.144794790683321 53.69958625113318 0.4468002331679692 0 0 0
155 1 6.722986410684513 55.44972260154284 2.254300109919424 0 0 0
156 1 6.288449105726812 57.20230682561088 4.061800040923521 0 0 0
157 1 5.824431070881502 58.966391497083684 5.869299699373884 0 0 0
158 1 10.218702712311938 48.87936776074255 -6.783199168536692 0 0 0
159 1 9.776263085471996 50.63495048479118 -4.975699160224631 0 0 0
160 1 9.338779125699517 52.386686203745704 -3.168199297090707 0 0 0
161 1 8.906205465433175 54.1361777807549 -1.3606993595385473 0 0 0
162 1 8.471672451992873 55.88985112253879 0.4468004583053893 0 0 0
163 1 8.026426843803264 57.65013994158462 2.2543003815403924 0 0 0
164 1 11.531907001866642 51.07122294183291 -6.783199083693518 0 0 0
165 1 11.096042142716414 52.82330727125093 -4.975699171675597 0 0 0
166 1 10.659480828567311 54.576352171072976 -3.1681992559269596 0 0 0
167 1 10.218702994458312 56.33188840011672 -1.3606994142613424 0 0 0
168 1 9.776263298272397 58.08747101026639 0.44680062093018963 0 0 0
169 1 12.849658582254392 53.261990087686506 -6.783199117564164 0 0 0
170 1 12.410613528494082 55.01626644353079 -4.975699124125708 0 0 0
171 1 11.970390071049806 56.770658601333814 -3.168199256624789 0 0 0
172 1 11.53190720641679 58.5237434912442 -1.3606992859572824 0 0 0
173 1 14.163132693599707 55.454895076598596 -6.783199095276596 0 0 0
174 1 13.724509405106872 57.208358207046636 -4.9756992428361775 0 0 0
175 1 13.287043038069328 58.961262707710155 -3.1681993035321665 0 0 0
176 1 15.478660930418584 57.646323597956474 -6.783199376376593 0 0 0
177 2 -0.2897126798810632 -59.338759293714645 4.061796209138712 0 0 0
178 2 -0.28971433060745255 30.091495730264747 -3.168203208621857 0 0 0
179 1 2.0455348072311352 30.09148823435182 -6.783200816331337 0 0 0
180 2 0.8779136631069662 31.678267588717425 -4.975701790236213 0 0 0
181 2 0.8779080001229431 33.531909153169146 -3.1682017996370733 0 0 0
182 2 0.8779085025582418 35.35899184122507 2.2542981967760247 0 0 0
183 2 -0.28971486967496674 37.54401713676642 2.2542967274334287 0 0 0
184 1 3.1110360906657917 32.250454400765754 -6.783200282313939 0 0 0
185 1 2.756547193193512 33.87312677412205 -4.975700460478505 0 0 0
186 1 2.4202335927686676 35.749564926128805 -3.168201131954673 0 0 0
187 1 2.045534136605056 37.544010072215734 -1.3607007927613122 0 0 0
188 2 0.8779121083532004 39.130789014482254 0.446798131129032 0 0 0
189 2 0.8779081579459103 40.98443043139576 2.2542980926795693 0 0 0
190 2 0.8779084302888123 48.436951497108645 -6.783202123580095 0 0 1
191 2 0.8779122192436972 46.583310139278716 5.869297918736386 0 0 0
192 1 4.530620328414869 34.38474711584181 -6.783199925998375 0 0 0
193 1 4.116026916028332 36.13568300991262 -4.975700294862359 0 0 0
194 1 3.6494178051560766 37.98520229617508 -3.1682004799469135 0 0 0
195 1 3.111036355280177 39.702975880619384 -1.360700374442189 0 0 0
196 1 2.756547387821655 41.32564800500861 0.44679940202024204 0 0 0
197 1 2.4202338779499115 43.20208601397692 2.254298719059831 0 0 0
198 1 2.0455345692995053 44.996531111711796 4.0617989896275 0 0 0
199 2 0.8779091361261493 50.26403426016051 5.869297824401087 0 0 0
200 1 5.824429837894357 36.60882959379898 -6.783199742030072 0 0 0
201 1 5.3728128530225945 38.37248834812804 -4.975699812046384 0 0 0
202 1 4.964177771782786 40.116738241243915 -3.1681999203527305 0 0 0
203 1 4.530620696535735 41.83726828739341 -1.3607000584467692 0 0 0
204 1 4.116027308763492 43.58820407627132 0.4467995428458601 0 0 0
205 1 3.6494182222859877 45.437723290775104 2.254299316802441 0 0 0
206 1 3.1110367197322972 47.15549687243996 4.061799365108935 0 0 0
207 1 2.756547715533003 48.778168712431885 5.869299140584487 0 0 0
208 1 7.144793952568278 38.79454489966678 -6.783199306674118 0 0 0
209 1 6.722985490264719 40.54468141427267 -4.975699403330333 0 0 0
210 1 6.288448102022585 42.297265834500145 -3.1681994899928902 0 0 0
211 1 5.824430240623144 44.06135059839348 -1.3606999036298149 0 0 0
212 1 5.372813271043768 45.82500927685006 0.44679997439846164 0 0 0
213 1 4.964178185264615 47.56925909963436 2.254299829960945 0 0 0
214 1 4.530621210247517 49.28978889445877 4.061799694734975 0 0 0
215 1 4.11602793511382 51.04072446153082 5.86929929365209 0 0 0
216 1 8.471671581463028 40.984809935877145 -6.783199068231551 0 0 0
217 1 8.02642603564999 42.74509883846036 -4.975699160873869 0 0 0
218 1 7.576981733323393 44.50022909414263 -3.168199400832399 0 0 0
219 1 7.144794430384636 46.24706570794631 -1.3606995037830312 0 0 0
220 1 6.722986054019444 47.997202155264084 0.44680036199407713 0 0 0
221 1 6.288448753775441 49.74978645174394 2.254300257950063 0 0 0
222 1 5.8244307986071675 51.51387113004255 4.061799846356259 0 0 0
223 1 5.37281367503121 53.277529750055955 5.8692997248979175 0 0 0
224 1 9.776262646207016 43.1824298003912 -6.783198930048717 0 0 0
225 1 9.338778745780829 44.934165486599376 -4.975699052959501 0 0 0
226 1 8.906205122748716 46.683657125478724 -3.16819910287636 0 0 0
227 1 8.471672148367745 48.437330576302195 -1.3606992898418808 0 0 0
228 1 8.026426602462251 50.19761948591425 0.4468005982965809 0 0 0
229 1 7.576982196916589 51.952749724208694 2.2543003505622465 0 0 0
230 1 7.1447947903641165 53.69958625067196 4.061800242780455 0 0 0
231 1 6.72298641209035 55.44972259444676 5.869300110435282 0 0 0
232 1 11.096041841668793 45.3707865298499 -6.783198936746116 0 0 0
233 1 10.659480521684884 47.12383145214272 -4.975699005324464 0 0 0
234 1 10.218702713553029 48.879367762978724 -3.168199166819371 0 0 0
235 1 9.776263090859317 50.63495048413477 -1.3606991630522873 0 0 0
236 1 9.338779125908758 52.38668620663781 0.44680070305767294 0 0 0
237 1 8.906205468106592 54.13617778336846 2.254300636977813 0 0 0
238 1 8.471672452524246 55.88985112520043 4.061800458330124 0 0 0
239 1 8.026426850548035 57.65013994512011 5.869300374930613 0 0 0
240 1 12.410613250509101 47.56374574217016 -6.78319889133032 0 0 0
241 1 11.970389797034613 49.318137948129696 -4.975699025335978 0 0 0
242 1 11.531907001668245 51.07122294122589 -3.168199082073605 0 0 0
243 1 11.096042143890784 52.823307268611096 -1.3606991721954977 0 0 0
244 1 10.659480825067007 54.5763521727556 0.4468007449656612 0 0 0
245 1 10.21870299322255 56.3318883991896 2.254300584695631 0 0 0
246 1 9.7762632967883 58.08747100961978 4.061800621819546 0 0 0
247 1 13.72450914886332 49.75583760962554 -6.783199041858317 0 0 0
248 1 13.287042850529403 51.50874217596088 -4.975699117753956 0 0 0
249 1 12.849658582847667 53.26199008769968 -3.1681991171513926 0 0 0
250 1 12.410613529217542 55.01626644341095 -1.3606991254359007 0 0 0
251 1 11.97039006983843 56.77065860375547 0.4468007428849603 0 0 0
252 1 11.531907208274987 58.523743490992096 2.2543007122964696 0 0 0
253 1 15.040751956430427 51.947160579261286 -6.783199282290513 0 0 0
254 1 14.602240678758704 53.70093731117117 -4.975699165019099 0 0 0
255 1 14.163132692976717 55.45489507708546 -3.1681990955081276 0 0 0
256 1 13.724509402476258 57.208358207633545 -1.3606992428221558 0 0 0
257 1 13.287043035768221 58.96126270654407 0.4468006964444972 0 0 0
258 1 16.355251716852607 54.139462426273276 -6.7831993639273485 0 0 0
259 1 15.91671386204608 55.89302252079076 -4.9756993522368935 0 0 0
260 1 15.478660930056776 57.646323598548996 -3.1681993766743415 0 0 0
261 1 17.6704351849405 56.33120530130494 -6.783199542068213 0 0 0
262 1 17.232276820637665 58.08465430895006 -4.975699393836606 0 0 0
263 1 18.985631707629693 58.52308842283656 -6.783199582601147 0 0 0
264 2 -0.28971411427421856 22.638973945299448 -4.975703216200352 0 0 0
265 2 0.8779080524388689 26.079387437348167 -4.9757018206981245 0 0 0
266 2 0.877908727442346 27.906470221329947 -3.168201900528141 0 0 0
267 2 0.8779087618743375 27.90647020172711 0.4467980939687393 0 0 0
268 2 -0.28971437831056335 30.09149575262972 0.4467967875443094 0 0 0
269 1 2.7565471020754018 26.42060508062314 -6.783200538089425 0 0 0
270 1 2.4202336581783612 28.297043122822082 -4.975701084024225 0 0 0
271 1 2.0455346452704646 30.091488187804934 -3.1682008176960683 0 0 0
272 2 0.8779136609971232 31.678267582471186 -1.3607017912308668 0 0 0
273 2 0.8779080038212612 33.53190915497844 0.4467982172539916 0 0 0
274 2 -0.2897147357293619 37.54401707130578 5.869296731783311 0 0 0
275 2 0.8779081481517323 40.98443042215359 5.86929809026903 0 0 0
276 1 4.116027111047927 28.68316127543155 -6.783200346109992 0 0 0
277 1 3.6494178898572898 30.532680742845777 -4.9757004485520815 0 0 0
278 1 3.1110360988793104 32.25045445495795 -3.1682002714724575 0 0 0
279 1 2.756547232855482 33.873126737185 -1.360700468292796 0 0 0
280 1 2.4202335927405016 35.74956492744611 0.44679889339470397 0 0 0
281 1 2.045534354276768 37.54401011563771 2.254299208580751 0 0 0
282 2 0.877912107665793 39.13078901729397 4.061798130048122 0 0 0
283 2 -0.28971429993701747 44.99653841911179 -6.7832034486888375 0 0 1
284 1 5.372812715293577 30.91996696537597 -6.783199789915069 0 0 0
285 1 4.964177489179704 32.6642169677589 -4.975699822555401 0 0 0
286 1 4.530620324696926 34.38474710810468 -3.1681999197704926 0 0 0
287 1 4.11602694880753 36.13568299273626 -1.3607002952991174 0 0 0
288 1 3.6494178039806684 37.985202293312035 0.446799584858903 0 0 0
289 1 3.111036336779989 39.70297583464572 2.254299621590798 0 0 0
290 1 2.7565473793534494 41.32564801252922 4.061799399968467 0 0 0
291 1 2.42023387692835 43.20208601689213 5.869298710204023 0 0 0
292 1 6.722985191378058 33.092160282693776 -6.783199312891104 0 0 0
293 1 6.288447732776234 34.844744773224924 -4.975699366021852 0 0 0
294 1 5.824429836476298 36.608829596312724 -3.1681997375277313 0 0 0
295 1 5.372812855881193 38.37248834779975 -1.3606998141870634 0 0 0
296 1 4.964177772762781 40.116738239013664 0.44680008012711936 0 0 0
297 1 4.530620693350031 41.837268287392114 2.2542999455839667 0 0 0
298 1 4.116027309204384 43.58820407049742 4.061799544059333 0 0 0
299 1 3.64941822681493 45.437723285571785 5.869299324022222 0 0 0
300 1 8.026425630711728 35.292577923729446 -6.7831990438042356 0 0 0
301 1 7.576981294626236 37.047708222198445 -4.975699250811999 0 0 0
302 1 7.144793952559198 38.794544900172845 -3.1681993111092073 0 0 0
303 1 6.722985491364355 40.54468141901324 -1.3606994020563496 0 0 0
304 1 6.288448104808012 42.29726583278832 0.44680050759265305 0 0 0
305 1 5.824430241286748 44.061350601650155 2.25430009602891 0 0 0
306 1 5.372813279252014 45.82500927805267 4.061799974699099 0 0 0
307 1 4.964178186955863 47.56925910218033 5.869299827783499 0 0 0
308 1 9.338778296609263 37.48164478117538 -6.783198920817327 0 0 0
309 1 8.90620462450562 39.231136459176376 -4.975698927547053 0 0 0
310 1 8.471671582706207 40.984809934981506 -3.168199068049273 0 0 0
311 1 8.026426034000508 42.74509883579112 -1.3606991592270992 0 0 0
312 1 7.57698173521419 44.50022908954882 0.44680059966277585 0 0 0
313 1 7.144794427043053 46.24706570472892 2.2543004996643528 0 0 0
314 1 6.722986053646167 47.99720215127385 4.061800361494019 0 0 0
315 1 6.288448742237847 49.74978645207094 5.869300263900065 0 0 0
316 1 10.659480049964884 39.67131087466924 -6.78319884773395 0 0 0
317 1 10.218702234645065 41.42684714895869 -4.97569896663855 0 0 0
318 1 9.776262647973368 43.182429800609476 -3.168198932345593 0 0 0
319 1 9.338778745974665 44.93416548922381 -1.3606990521211613 0 0 0
320 1 8.906205125835783 46.68365712505851 0.4468008945924581 0 0 0
321 1 8.471672147316752 48.43733057944598 2.2543007105567745 0 0 0
322 1 8.026426605216884 50.197619485850915 4.061800594782169 0 0 0
323 1 7.576982194456676 51.9527497276105 5.869300350124642 0 0 0
324 1 11.970389456838546 41.86561732107632 -6.783198842186004 0 0 0
325 1 11.531906696204345 43.61870225686754 -4.975698872346997 0 0 0
326 1 11.096041842931143 45.37078652860685 -3.1681989360922302 0 0 0
327 1 10.659480520124347 47.1238314514325 -1.3606990043456517 0 0 0
328 1 10.218702712643335 48.87936776068094 0.44680083142139865 0 0 0
329 1 9.776263085530601 50.63495048521076 2.2543008395626303 0 0 0
330 1 9.338779125814469 52.386686204042796 4.061800702529626 0 0 0
331 1 8.906205465520543 54.13617778068244 5.869300640386491 0 0 0
332 1 13.287042614668437 44.05622148490621 -6.78319892765607 0 0 0
333 1 12.849658334769146 45.80946938483883 -4.975698896213691 0 0 0
334 1 12.410613250641859 47.563745740324656 -3.168198892220923 0 0 0
335 1 11.97038979787591 49.31813794915025 -1.3606990232186047 0 0 0
336 1 11.531907001892648 51.07122294212437 0.4468009161988371 0 0 0
337 1 11.096042142508196 52.823307271689934 2.254300828059625 0 0 0
338 1 10.659480828468489 54.576352171066 4.061800743659272 0 0 0
339 1 10.218702994418905 56.331888400151634 5.869300585614272 0 0 0
340 1 14.602240414765447 46.24841663698913 -6.783198973714538 0 0 0
341 1 14.163132421663661 48.00237443764353 -4.975698887130836 0 0 0
342 1 13.724509148497361 49.755837607569696 -3.168199041275458 0 0 0
343 1 13.287042851036276 51.50874217494698 -1.3606991166651423 0 0 0
344 1 12.84965858235779 53.261990088012645 0.4468008826201576 0 0 0
345 1 12.410613528388467 55.01626644380395 2.254300875885901 0 0 0
346 1 11.970390071050673 56.77065860134301 4.0618007432324665 0 0 0
347 1 11.531907206397676 58.52374349101297 5.869300713841138 0 0 0
348 1 15.916713577657774 48.44050189521737 -6.783199178883613 0 0 0
349 1 15.478660705815088 50.193803050837936 -4.97569919315439 0 0 0
350 1 15.040751955499346 51.94716057828733 -3.168199282690955 0 0 0
351 1 14.602240679138362 53.70093731159265 -1.3606991653823106 0 0 0
352 1 14.163132693754292 55.45489507693241 0.4468009048212184 0 0 0
353 1 13.724509405344918 57.20835820730854 2.2543007573843674 0 0 0
354 1 13.287043038244803 58.96126270744042 4.061800696602083 0 0 0
355 1 17.232276578711293 50.63213374705452 -6.783199246789248 0 0 0
356 1 16.793908187582602 52.38574340411838 -4.975699351590204 0 0 0
357 1 16.35525171643863 54.139462426955525 -3.168199364744656 0 0 0
358 1 15.916713858792633 55.89302252226961 -1.3606993508992231 0 0 0
359 1 15.47866093056119 57.6463235981004 0.4468006237209544 0 0 0
360 1 18.54716006383049 52.824183632045155 -6.783199417960311 0 0 0
361 1 18.108700924790284 54.577751422388154 -4.975699489479552 0 0 0
362 1 17.67043518490769 56.331205303223335 -3.168199540858355 0 0 0
363 1 17.232276821322387 58.084654310145105 -1.3606993934151288 0 0 0
364 1 19.862248994144807 55.01603327466385 -6.783199500447381 0 0 0
365 1 19.423973485886833 56.76953117306589 -4.975699629309851 0 0 0
366 1 18.985631707937088 58.523088422679386 -3.168199583009512 0 0 0
367 1 21.17739480281287 57.20791061110517 -6.783199832458737 0 0 0
368 1 20.738994782392737 58.96148175653416 -4.975699726676618 0 0 0
369 2 0.8779092236408843 20.45394828217578 -4.975701975473443 0 0 0
370 2 0.8779091880486334 20.45394833762827 -1.3607019734197139 0 0 0
371 2 -0.2897140047432032 22.638973909436096 -1.3607032180540224 0 0 0
372 1 2.4202340725827014 20.84452130894328 -6.783201075512323 0 0 0
373 1 2.0455352075485678 22.63896637684345 -4.975700900631607 0 0 0
374 2 0.8779139473029289 24.225745797594236 -3.1682018423747818 0 0 0
375 2 0.8779080558413028 26.079387432816965 -1.3607018145287297 0 0 0
376 2 -0.28971438417556783 30.0914957478416 4.061796788962259 0 0 0
377 2 0.8779080000138322 33.53190915729257 4.0617982069690255 0 0 0
378 1 3.649418154929407 23.080159047791035 -6.783200465997558 0 0 0
379 1 3.1110361575148033 24.797932624236957 -4.975700328871491 0 0 0
380 1 2.7565471327722264 26.42060505354086 -3.168200521716264 0 0 0
381 1 2.420233655198814 28.297043120167977 -1.360701068625357 0 0 0
382 1 2.0455346871090967 30.091488193994003 0.4467991823008193 0 0 0
383 2 0.8779136630621593 31.678267587559283 2.254298205085043 0 0 0
384 2 0.8779121083532004 39.130789016959305 -6.783201865259891 0 0 1
385 2 0.8779088589302972 42.811513176958634 -6.78320194933052 0 0 1
386 1 4.964177616699857 25.211695383463557 -6.783199877284435 0 0 0
387 1 4.530620437152805 26.932225440324295 -4.9756999547903575 0 0 0
388 1 4.116027137845933 28.68316125856068 -3.16820034813942 0 0 0
389 1 3.649417907974467 30.532680750773814 -1.3607004126497875 0 0 0
390 1 3.1110361001129974 32.25045444511375 0.44679971389592765 0 0 0
391 1 2.756547194096356 33.87312677243758 2.2542995315649677 0 0 0
392 1 2.4202335974557627 35.74956492740437 4.061798868482839 0 0 0
393 1 2.0455342645537655 37.54401011490959 5.869299207963053 0 0 0
394 1 6.288447877559861 27.392223266016778 -6.783199412371481 0 0 0
395 1 5.824429893395916 29.156308100867143 -4.975699750720766 0 0 0
396 1 5.372812722508996 30.919966965359016 -3.1681997872398853 0 0 0
397 1 4.964177475562622 32.66421696857477 -1.3606998234704102 0 0 0
398 1 4.530620323815128 34.38474711102295 0.44680007178448433 0 0 0
399 1 4.116026915207115 36.13568301147841 2.2542997041647173 0 0 0
400 1 3.6494177875018607 37.985202290944336 4.061799545085676 0 0 0
401 1 3.1110363448173075 39.70297583623786 5.869299626822773 0 0 0
402 1 7.576981256059014 29.595186947039615 -6.783199270195346 0 0 0
403 1 7.144793764243488 31.342023695012337 -4.975699272789324 0 0 0
404 1 6.722985193408732 33.092160282188125 -3.1681993146511123 0 0 0
405 1 6.288447729225737 34.84474478064869 -1.360699365211794 0 0 0
406 1 5.824429835776627 36.60882959598518 0.4468002568395347 0 0 0
407 1 5.372812852905128 38.372488348397546 2.2543001789178407 0 0 0
408 1 4.964177776229519 40.11673824388442 4.061800078956998 0 0 0
409 1 4.530620701249234 41.83726829360321 5.86929994273419 0 0 0
410 1 8.906204403455192 31.778615384450596 -6.78319890378703 0 0 0
411 1 8.471671254117638 33.53228895020779 -4.975698986908997 0 0 0
412 1 8.026425631821056 35.29257792247943 -3.1681990421035007 0 0 0
413 1 7.576981295072017 37.04770822195331 -1.3606992518740801 0 0 0
414 1 7.144793952150934 38.79454489946716 0.4468006935921275 0 0 0
415 1 6.7229854903202835 40.54468141454897 2.2543005970240073 0 0 0
416 1 6.28844810110472 42.29726583369037 4.061800510121074 0 0 0
417 1 5.8244302387905975 44.06135059775328 5.869300096984604 0 0 0
418 1 10.218701852565601 33.974326277889894 -6.783198909523704 0 0 0
419 1 9.77626221063251 35.72990902930889 -4.97569883498714 0 0 0
420 1 9.338778294754093 37.48164478062554 -3.1681989207144587 0 0 0
421 1 8.906204627272132 39.231136459734834 -1.3606989288768576 0 0 0
422 1 8.471671581153899 40.98480993627687 0.44680093140683097 0 0 0
423 1 8.026426035571674 42.745098838555585 2.2543008383770973 0 0 0
424 1 7.576981733832781 44.500229094338856 4.061800598808985 0 0 0
425 1 7.1447944312404275 46.24706570738112 5.8693004963090045 0 0 0
426 1 11.53190622602827 36.16618155392134 -6.783198791708781 0 0 0
427 1 11.096041379199022 37.91826591164769 -4.975698820825228 0 0 0
428 1 10.65948004803127 39.67131087494318 -3.168198847655653 0 0 0
429 1 10.218702234478911 41.426847146322864 -1.3606989674590553 0 0 0
430 1 9.776262646257223 43.18242980047943 0.44680106972735234 0 0 0
431 1 9.338778745942477 44.934165486733015 2.254300946856162 0 0 0
432 1 8.906205122934196 46.68365712537132 4.061800896985356 0 0 0
433 1 8.471672149300218 48.437330575859896 5.869300710437122 0 0 0
434 1 12.849657885663731 38.356948724066505 -6.783198792754174 0 0 0
435 1 12.410612851758557 40.11122513620514 -4.975698753168645 0 0 0
436 1 11.970389455837989 41.865617321224185 -3.168198841504744 0 0 0
437 1 11.531906696955986 43.61870225640687 -1.3606988735917918 0 0 0
438 1 11.0960418417055 45.37078653001961 0.4468010632659527 0 0 0
439 1 10.65948052190548 47.123831452205444 2.2543009945180676 0 0 0
440 1 10.218702713639132 48.87936776326307 4.061800833053343 0 0 0