#LAMMPS data file
29248 atoms
2 atom types
-125.2250000000 125.2250000000 xlo xhi
-59.6201706000 59.6201706000 ylo yhi
-7.2300000000 7.2300000000 zlo zhi
0.0 0.0 0.0 xy xz yz

Atoms # atomic

1 2 0.685890 57.958976 -6.782456
2 2 -0.328786 52.419518 -4.974955
3 2 0.831224 54.051460 -6.782456
4 2 0.833714 55.935569 -4.974956
5 2 0.685890 57.958976 -3.167456
6 1 2.609810 56.364800 -6.782457
7 1 2.322745 58.201573 -4.974956
8 1 4.008111 58.614791 -6.782457
9 2 0.862937 48.441528 -6.782456
10 2 0.855970 50.269894 -4.974956
11 2 -0.328786 52.419518 -1.359955
12 1 2.384095 50.699442 -6.782456
13 1 2.004061 52.496482 -4.974957
14 2 0.831224 54.051460 -3.167456
15 2 0.833714 55.935569 -1.359956
16 2 0.685890 57.958976 0.447544
17 1 3.592640 52.955303 -6.782457
18 1 3.036936 54.692231 -4.974957
19 1 2.609810 56.364800 -3.167457
20 1 2.322745 58.201573 -1.359957
21 1 4.857765 55.117565 -6.782458
22 1 4.429959 56.841838 -4.974958
23 1 4.008111 58.614791 -3.167457
24 1 6.200414 57.286453 -6.782458
25 1 5.770867 59.037268 -4.974958
26 2 0.865375 42.814723 -6.782456
27 2 -0.309695 44.983965 -3.167454
28 1 2.025197 45.016193 -6.782457
29 2 0.846242 46.586844 -4.974955
30 2 0.862937 48.441528 -3.167456
31 2 0.855970 50.269894 -1.359956
32 2 -0.328786 52.419518 2.255045
33 1 3.093800 47.178909 -6.782457
34 1 2.739444 48.806003 -4.974957
35 1 2.384095 50.699442 -3.167456
36 1 2.004061 52.496482 -1.359957
37 2 0.831224 54.051460 0.447544
38 2 0.833714 55.935569 2.255044
39 2 0.685890 57.958976 4.062544
40 1 4.496670 49.333345 -6.782457
41 1 4.073188 51.092316 -4.974957
42 1 3.592640 52.955303 -3.167457
43 1 3.036936 54.692231 -1.359957
44 1 2.609810 56.364800 0.447543
45 1 2.322745 58.201573 2.255044
46 1 5.768596 51.575580 -6.782458
47 1 5.300129 53.353382 -4.974958
48 1 4.857765 55.117565 -3.167458
49 1 4.429959 56.841838 -1.359958
50 1 4.008111 58.614791 0.447543
51 1 7.060555 53.778040 -6.782459
52 1 6.631242 55.532091 -4.974958
53 1 6.200414 57.286453 -3.167458
54 1 5.770867 59.037268 -1.359958
55 1 8.396485 55.958582 -6.782459
56 1 7.969550 57.710017 -4.974959
57 1 9.741679 58.133625 -6.782459
58 2 -0.302150 37.538437 -4.974954
59 2 0.858647 39.134000 -6.782456
60 2 0.868685 40.987643 -4.974956
61 2 0.865375 42.814723 -3.167456
62 2 -0.309695 44.983965 0.447546
63 1 2.747364 41.340423 -6.782457
64 1 2.402563 43.222035 -4.974956
65 1 2.025197 45.016193 -3.167457
66 2 0.846242 46.586844 -1.359955
67 2 0.862937 48.441528 0.447544
68 2 0.855970 50.269894 2.255044
69 2 -0.328786 52.419518 5.870045
70 1 4.097556 43.612459 -6.782457
71 1 3.629033 45.462869 -4.974957
72 1 3.093800 47.178909 -3.167457
73 1 2.739444 48.806003 -1.359957
74 1 2.384095 50.699442 0.447544
75 1 2.004061 52.496482 2.255043
76 2 0.831224 54.051460 4.062544
77 2 0.833714 55.935569 5.870044
78 1 5.351241 45.855325 -6.782457
79 1 4.940413 47.603331 -4.974957
80 1 4.496670 49.333345 -3.167457
81 1 4.073188 51.092316 -1.359957
82 1 3.592640 52.955303 0.447543
83 1 3.036936 54.692231 2.255043
84 1 2.609810 56.364800 4.062543
85 1 2.322745 58.201573 5.870043
86 1 6.688782 48.040568 -6.782458
87 1 6.244663 49.800769 -4.974958
88 1 5.768596 51.575580 -3.167458
89 1 5.300129 53.353382 -1.359958
90 1 4.857765 55.117565 0.447542
91 1 4.429959 56.841838 2.255042
92 1 4.008111 58.614791 4.062543
93 1 7.973023 50.254947 -6.782458
94 1 7.510100 52.019933 -4.974958
95 1 7.060555 53.778040 -3.167459
96 1 6.631242 55.532091 -1.359958
97 1 6.200414 57.286453 0.447542
98 1 5.770867 59.037268 2.255042
99 1 9.267352 52.453638 -6.782459
100 1 8.828275 54.206427 -4.974959
101 1 8.396485 55.958582 -3.167459
102 1 7.969550 57.710017 -1.359959
103 1 10.594127 54.636127 -6.782460
104 1 10.164318 56.385756 -4.974959
105 1 9.741679 58.133625 -3.167459
106 1 11.932521 56.814305 -6.782460
107 1 11.509766 58.562442 -4.974960
108 1 13.271688 58.995741 -6.782460
109 2 0.871723 33.535398 -6.782455
110 2 0.869635 35.362451 -4.974955
111 2 -0.302150 37.538437 -1.359954
112 1 2.409236 35.762635 -6.782456
113 1 2.033032 37.556643 -4.974957
114 2 0.858647 39.134000 -3.167456
115 2 0.868685 40.987643 -1.359956
116 2 0.865375 42.814723 0.447544
117 2 -0.309695 44.983965 4.062546
118 1 3.637622 38.000722 -6.782457
119 1 3.101650 39.716737 -4.974957
120 1 2.747364 41.340423 -3.167457
121 1 2.402563 43.222035 -1.359956
122 1 2.025197 45.016193 0.447543
123 2 0.846242 46.586844 2.255045
124 2 0.862937 48.441528 4.062544
125 2 0.855970 50.269894 5.870044
126 1 4.952492 40.136126 -6.782457
127 1 4.515201 41.859708 -4.974957
128 1 4.097556 43.612459 -3.167457
129 1 3.629033 45.462869 -1.359957
130 1 3.093800 47.178909 0.447543
131 1 2.739444 48.806003 2.255043
132 1 2.384095 50.699442 4.062544
133 1 2.004061 52.496482 5.870043
134 1 6.270141 42.323801 -6.782458
135 1 5.804005 44.089946 -4.974957
136 1 5.351241 45.855325 -3.167457
137 1 4.940413 47.603331 -1.359957
138 1 4.496670 49.333345 0.447543
139 1 4.073188 51.092316 2.255043
140 1 3.592640 52.955303 4.062543
141 1 3.036936 54.692231 5.870043
142 1 7.553417 44.533116 -6.782458
143 1 7.117700 46.283873 -4.974958
144 1 6.688782 48.040568 -3.167458
145 1 6.244663 49.800769 -1.359958
146 1 5.768596 51.575580 0.447542
147 1 5.300129 53.353382 2.255042
148 1 4.857765 55.117565 4.062542
149 1 4.429959 56.841838 5.870042
150 1 8.871630 46.726466 -6.782458
151 1 8.428862 48.486625 -4.974958
152 1 7.973023 50.254947 -3.167458
153 1 7.510100 52.019933 -1.359958
154 1 7.060555 53.778040 0.447541
155 1 6.631242 55.532091 2.255042
156 1 6.200414 57.286453 4.062542
157 1 5.770867 59.037268 5.870042
158 1 10.168716 48.932691 -6.782459
159 1 9.715974 50.695158 -4.974959
160 1 9.267352 52.453638 -3.167459
161 1 8.828275 54.206427 -1.359959
162 1 8.396485 55.958582 0.447541
163 1 7.969550 57.710017 2.255041
164 1 11.469819 51.130375 -6.782459
165 1 11.029133 52.884596 -4.974960
166 1 10.594127 54.636127 -3.167460
167 1 10.164318 56.385756 -1.359959
168 1 9.741679 58.133625 0.447541
169 1 12.792066 53.315674 -6.782460
170 1 12.359920 55.065795 -4.974960
171 1 11.932521 56.814305 -3.167460
172 1 11.509766 58.562442 -1.359960
173 1 14.124985 55.496662 -6.782461
174 1 13.697662 57.245651 -4.974961
175 1 13.271688 58.995741 -3.167460
176 1 15.458993 57.679615 -6.782461
177 2 0.872289 27.910237 -6.782455
178 2 -0.298123 30.089142 -3.167454
179 1 2.037110 30.101401 -6.782457
180 2 0.864832 31.681827 -4.974955
181 2 0.871723 33.535398 -3.167455
182 2 0.869634 35.362451 -1.359955
183 2 -0.302150 37.538437 2.255046
184 1 3.105023 32.260848 -6.782457
185 1 2.750565 33.883787 -4.974957
186 1 2.409236 35.762635 -3.167456
187 1 2.033032 37.556643 -1.359957
188 2 0.858647 39.134000 0.447544
189 2 0.868685 40.987643 2.255044
190 2 0.865375 42.814723 4.062544
191 2 -0.309695 44.983965 -6.782454
192 1 4.521385 34.400157 -6.782457
193 1 4.105051 36.151601 -4.974957
194 1 3.637622 38.000722 -3.167457
195 1 3.101650 39.716737 -1.359957
196 1 2.747364 41.340423 0.447543
197 1 2.402563 43.222035 2.255044
198 1 2.025197 45.016193 4.062543
199 2 0.846242 46.586844 5.870045
200 1 5.813106 36.627441 -6.782458
201 1 5.361400 38.391112 -4.974957
202 1 4.952492 40.136126 -3.167457
203 1 4.515201 41.859708 -1.359957
204 1 4.097556 43.612459 0.447543
205 1 3.629033 45.462869 2.255043
206 1 3.093800 47.178909 4.062543
207 1 2.739444 48.806003 5.870043
208 1 7.131617 38.816988 -6.782458
209 1 6.707488 40.569163 -4.974958
210 1 6.270141 42.323801 -3.167458
211 1 5.804005 44.089946 -1.359957
212 1 5.351241 45.855325 0.447543
213 1 4.940413 47.603331 2.255043
214 1 4.496670 49.333345 4.062543
215 1 4.073188 51.092316 5.870043
216 1 8.453175 41.013007 -6.782458
217 1 8.005354 42.775502 -4.974958
218 1 7.553417 44.533116 -3.167458
219 1 7.117700 46.283873 -1.359958
220 1 6.688782 48.040568 0.447542
221 1 6.244663 49.800769 2.255042
222 1 5.768596 51.575580 4.062542
223 1 5.300129 53.353382 5.870042
224 1 9.751700 43.216609 -6.782459
225 1 9.310221 44.971892 -4.974958
226 1 8.871630 46.726466 -3.167458
227 1 8.428862 48.486625 -1.359958
228 1 7.973023 50.254947 0.447542
229 1 7.510100 52.019933 2.255042
230 1 7.060555 53.778040 4.062541
231 1 6.631242 55.532091 5.870042
232 1 11.061787 45.412836 -6.782459
233 1 10.618204 47.171030 -4.974959
234 1 10.168716 48.932691 -3.167459
235 1 9.715974 50.695158 -1.359959
236 1 9.267352 52.453638 0.447541
237 1 8.828275 54.206427 2.255041
238 1 8.396485 55.958582 4.062541
239 1 7.969550 57.710017 5.870041
240 1 12.364188 47.613638 -6.782460
241 1 11.916052 49.372925 -4.974959
242 1 11.469819 51.130375 -3.167459
243 1 11.029133 52.884596 -1.359960
244 1 10.594127 54.636127 0.447540
245 1 10.164318 56.385756 2.255041
246 1 9.741679 58.133625 4.062541
247 1 13.669673 49.809393 -6.782460
248 1 13.228661 51.563648 -4.974960
249 1 12.792066 53.315674 -3.167460
250 1 12.359920 55.065795 -1.359960
251 1 11.932521 56.814305 0.447540
252 1 11.509766 58.562442 2.255040
253 1 14.989423 51.996456 -6.782460
254 1 14.555416 53.747194 -4.974960
255 1 14.124985 55.496662 -3.167461
256 1 13.697662 57.245651 -1.359961
257 1 13.271688 58.995741 0.447540
258 1 16.318181 54.179711 -6.782461
259 1 15.887945 55.929447 -4.974961
260 1 15.458993 57.679615 -3.167461
261 1 17.648455 56.363992 -6.782461
262 1 17.217637 58.115187 -4.974961
263 1 18.974764 58.551609 -6.782462
264 2 -0.295474 22.638364 -4.974954
265 2 0.868565 24.229622 -6.782455
266 2 0.873828 26.083185 -4.974955
267 2 0.872289 27.910237 -3.167455
268 2 -0.298124 30.089142 0.447546
269 1 2.752679 26.429556 -6.782457
270 1 2.412851 28.307374 -4.974956
271 1 2.037110 30.101401 -3.167457
272 2 0.864832 31.681827 -1.359955
273 2 0.871723 33.535398 0.447545
274 2 0.869635 35.362451 2.255045
275 2 -0.302149 37.538437 5.870046
276 1 4.108852 28.695622 -6.782457
277 1 3.641699 30.544510 -4.974957
278 1 3.105023 32.260848 -3.167457
279 1 2.750565 33.883787 -1.359957
280 1 2.409236 35.762635 0.447544
281 1 2.033032 37.556643 2.255043
282 2 0.858647 39.134000 4.062544
283 2 0.868685 40.987643 5.870044
284 1 5.365708 30.934014 -6.782457
285 1 4.957032 32.678296 -4.974957
286 1 4.521385 34.400157 -3.167457
287 1 4.105051 36.151601 -1.359957
288 1 3.637622 38.000722 0.447543
289 1 3.101650 39.716737 2.255043
290 1 2.747364 41.340423 4.062543
291 1 2.402563 43.222035 5.870044
292 1 6.713966 33.109646 -6.782458
293 1 6.277999 34.862906 -4.974958
294 1 5.813106 36.627441 -3.167458
295 1 5.361400 38.391112 -1.359957
296 1 4.952492 40.136126 0.447543
297 1 4.515201 41.859708 2.255043
298 1 4.097556 43.612459 4.062543
299 1 3.629033 45.462869 5.870043
300 1 8.015006 35.313335 -6.782458
301 1 7.564777 37.069071 -4.974958
302 1 7.131617 38.816988 -3.167458
303 1 6.707488 40.569163 -1.359958
304 1 6.270141 42.323801 0.447542
305 1 5.804005 44.089946 2.255043
306 1 5.351241 45.855325 4.062543
307 1 4.940413 47.603331 5.870043
308 1 9.324723 37.506118 -6.782459
309 1 8.890193 39.257289 -4.974959
310 1 8.453175 41.013007 -3.167458
311 1 8.005354 42.775502 -1.359958
312 1 7.553417 44.533116 0.447542
313 1 7.117700 46.283873 2.255042
314 1 6.688782 48.040568 4.062542
315 1 6.244663 49.800769 5.870042
316 1 10.640657 39.700679 -6.782459
317 1 10.197187 41.458407 -4.974959
318 1 9.751700 43.216609 -3.167459
319 1 9.310221 44.971892 -1.359958
320 1 8.871630 46.726466 0.447542
321 1 8.428862 48.486625 2.255042
322 1 7.973023 50.254947 4.062542
323 1 7.510100 52.019933 5.870042
324 1 11.945483 41.900404 -6.782459
325 1 11.503008 43.656634 -4.974959
326 1 11.061787 45.412836 -3.167459
327 1 10.618204 47.171030 -1.359959
328 1 10.168716 48.932691 0.447541
329 1 9.715974 50.695158 2.255041
330 1 9.267352 52.453638 4.062541
331 1 8.828275 54.206427 5.870041
332 1 13.253667 44.097404 -6.782460
333 1 12.810331 45.854721 -4.974960
334 1 12.364188 47.613638 -3.167460
335 1 11.916052 49.372925 -1.359959
336 1 11.469819 51.130375 0.447541
337 1 11.029133 52.884596 2.255040
338 1 10.594127 54.636127 4.062540
339 1 10.164318 56.385756 5.870041
340 1 14.559260 46.295494 -6.782460
341 1 14.113991 48.052988 -4.974960
342 1 13.669673 49.809393 -3.167460
343 1 13.228661 51.563648 -1.359960
344 1 12.792066 53.315674 0.447540
345 1 12.359920 55.065795 2.255040
346 1 11.932521 56.814305 4.062540
347 1 11.509766 58.562442 5.870040
348 1 15.867731 48.489937 -6.782461
349 1 15.426986 50.244079 -4.974960
350 1 14.989423 51.996456 -3.167460
351 1 14.555416 53.747194 -1.359960
352 1 14.124985 55.496662 0.447539
353 1 13.697662 57.245651 2.255039
354 1 13.271688 58.995741 4.062540
355 1 17.186107 50.678179 -6.782461
356 1 16.750766 52.429478 -4.974961
357 1 16.318181 54.179711 -3.167461
358 1 15.887945 55.929447 -1.359961
359 1 15.458993 57.679615 0.447539
360 1 18.511764 52.863197 -6.782462
361 1 18.079517 54.613546 -4.974961
362 1 17.648455 56.363992 -3.167461
363 1 17.217637 58.115187 -1.359961
364 1 19.839203 55.048612 -6.782462
365 1 19.407035 56.799758 -4.974962
366 1 18.974764 58.551609 -3.167462
367 1 21.164331 57.236286 -6.782462
368 1 20.731036 58.988528 -4.974962
369 2 0.875527 18.630945 -6.782456
370 2 0.874268 20.457998 -4.974956
371 2 -0.295474 22.638364 -1.359954
372 1 2.415295 20.853614 -6.782457
373 1 2.039775 22.647668 -4.974957
374 2 0.868565 24.229622 -3.167455
375 2 0.873828 26.083185 -1.359955
376 2 0.872289 27.910237 0.447545
377 2 -0.298123 30.089142 4.062546
378 1 3.644306 23.090318 -6.782457
379 1 3.107227 24.806874 -4.974957
380 1 2.752679 26.429556 -3.167457
381 1 2.412851 28.307374 -1.359956
382 1 2.037110 30.101401 0.447543
383 2 0.864832 31.681827 2.255045
384 2 0.871723 33.535398 4.062545
385 2 0.869634 35.362451 5.870045
386 1 4.959697 25.223401 -6.782458
387 1 4.524691 26.944603 -4.974957
388 1 4.108852 28.695622 -3.167457
389 1 3.641699 30.544510 -1.359957
390 1 3.105023 32.260848 0.447543
391 1 2.750565 33.883787 2.255043
392 1 2.409236 35.762635 4.062544
393 1 2.033032 37.556643 5.870043
394 1 6.281897 27.406706 -6.782458
395 1 5.817317 29.170747 -4.974957
396 1 5.365708 30.934014 -3.167457
397 1 4.957032 32.678296 -1.359957
398 1 4.521385 34.400157 0.447543
399 1 4.105051 36.151601 2.255043
400 1 3.637622 38.000722 4.062543
401 1 3.101650 39.716737 5.870043
402 1 7.569646 29.611681 -6.782458
403 1 7.137000 31.358761 -4.974958
404 1 6.713966 33.109646 -3.167458
405 1 6.277999 34.862906 -1.359958
406 1 5.813106 36.627441 0.447542
407 1 5.361400 38.391112 2.255043
408 1 4.952492 40.136126 4.062543
409 1 4.515201 41.859708 5.870043
410 1 8.897090 31.797997 -6.782459
411 1 8.461350 33.552386 -4.974958
412 1 8.015006 35.313335 -3.167458
413 1 7.564777 37.069071 -1.359958
414 1 7.131617 38.816988 0.447542
415 1 6.707488 40.569163 2.255042
416 1 6.270141 42.323801 4.062542
417 1 5.804005 44.089946 5.870043
418 1 10.207129 33.996823 -6.782459
419 1 9.763539 35.753247 -4.974959
420 1 9.324723 37.506118 -3.167459
421 1 8.890193 39.257289 -1.359959
422 1 8.453175 41.013007 0.447542
423 1 8.005354 42.775502 2.255042
424 1 7.553417 44.533116 4.062542
425 1 7.117700 46.283873 5.870042
426 1 11.517353 36.192181 -6.782460
427 1 11.079580 37.945766 -4.974959
428 1 10.640657 39.700679 -3.167459
429 1 10.197187 41.458407 -1.359959
430 1 9.751700 43.216609 0.447541
431 1 9.310221 44.971892 2.255042
432 1 8.871630 46.726466 4.062542
433 1 8.428862 48.486625 5.870042
434 1 12.830638 38.387237 -6.782460
435 1 12.388889 40.143548 -4.974960
436 1 11.945483 41.900404 -3.167459
437 1 11.503008 43.656634 -1.359959
438 1 11.061787 45.412836 0.447541
439 1 10.618204 47.171030 2.255041
440 1 10.168716 48.932691 4.062541
441 1 9.715974 50.695158 5.870041
442 1 14.138338 40.584939 -6.782460
443 1 13.695911 42.341122 -4.974960
444 1 13.253667 44.097404 -3.167460
445 1 12.810331 45.854721 -1.359960
446 1 12.364188 47.613638 0.447540
447 1 11.916052 49.372925 2.255041
448 1 11.469819 51.130375 4.062541
449 1 11.029133 52.884596 5.870040
450 1 15.446524 42.781614 -6.782460
451 1 15.003559 44.538186 -4.974960
452 1 14.559260 46.295494 -3.167460
453 1 14.113991 48.052988 -1.359960
454 1 13.669673 49.809393 0.447540
455 1 13.228661 51.563648 2.255040
456 1 12.792066 53.315674 4.062540
457 1 12.359920 55.065795 5.870040
458 1 16.754145 44.978038 -6.782461
459 1 16.310609 46.734344 -4.974961
460 1 15.867731 48.489937 -3.167461
461 1 15.426986 50.244079 -1.359960
462 1 14.989423 51.996456 0.447540
463 1 14.555416 53.747194 2.255040
464 1 14.124985 55.496662 4.062539
465 1 13.697662 57.245651 5.870039
466 1 18.064563 47.171586 -6.782461
467 1 17.624180 48.925547 -4.974961
468 1 17.186107 50.678179 -3.167461
469 1 16.750766 52.429478 -1.359961
470 1 16.318181 54.179711 0.447539
471 1 15.887945 55.929447 2.255039
472 1 15.458993 57.679615 4.062539
473 1 19.382137 49.360618 -6.782462
474 1 18.945875 51.112350 -4.974962
475 1 18.511764 52.863197 -3.167462
476 1 18.079517 54.613546 -1.359961
477 1 17.648455 56.363992 0.447539
478 1 17.217637 58.115187 2.255039
479 1 20.705510 51.546991 -6.782462
480 1 20.271821 53.297838 -4.974962
481 1 19.839203 55.048612 -3.167462
482 1 19.407035 56.799758 -1.359962
483 1 18.974764 58.551609 0.447538
484 1 22.030746 53.733367 -6.782462
485 1 21.597480 55.484615 -4.974962
486 1 21.164331 57.236286 -3.167462
487 1 20.731036 58.988528 -1.359962
488 1 23.354708 55.921273 -6.782462
489 1 22.920778 57.673314 -4.974962
490 1 24.676614 58.110710 -6.782463
491 2 0.875908 13.005739 -6.782456
492 2 -0.293481 15.186874 -3.167454
493 1 2.041775 15.194628 -6.782457
494 2 0.871128 16.777382 -4.974956
495 2 0.875527 18.630945 -3.167456
496 2 0.874268 20.457998 -1.359956
497 2 -0.295474 22.638364 2.255046
498 1 3.108970 17.353717 -6.782458
499 1 2.754371 18.976280 -4.974957
500 1 2.415295 20.853614 -3.167457
501 1 2.039775 22.647668 -1.359957
502 2 0.868565 24.229622 0.447545
503 2 0.873828 26.083185 2.255045
504 2 0.872289 27.910237 4.062545
505 2 -0.298124 30.089142 -6.782454
506 1 4.526961 19.490652 -6.782458
507 1 4.111355 21.241484 -4.974958
508 1 3.644306 23.090318 -3.167457
509 1 3.107227 24.806874 -1.359957
510 1 2.752679 26.429556 0.447543
511 1 2.412851 28.307374 2.255044
512 1 2.037110 30.101401 4.062543
513 2 0.864832 31.681827 5.870045
514 1 5.819968 21.716247 -6.782458
515 1 5.368346 23.479376 -4.974958
516 1 4.959697 25.223401 -3.167458
517 1 4.524691 26.944603 -1.359957
518 1 4.108852 28.695622 0.447543
519 1 3.641699 30.544510 2.255043
520 1 3.105023 32.260848 4.062543
521 1 2.750565 33.883787 5.870043
522 1 7.140056 23.903567 -6.782459
523 1 6.717402 25.653945 -4.974958
524 1 6.281897 27.406706 -3.167458
525 1 5.817317 29.170747 -1.359957
526 1 5.365708 30.934014 0.447543
527 1 4.957032 32.678296 2.255043
528 1 4.521385 34.400157 4.062543
529 1 4.105051 36.151601 5.870043
530 1 8.465435 26.096140 -6.782459
531 1 8.019504 27.856537 -4.974958
532 1 7.569646 29.611681 -3.167458
533 1 7.137000 31.358761 -1.359958
534 1 6.713966 33.109646 0.447542
535 1 6.277999 34.862906 2.255042
536 1 5.813106 36.627441 4.062542
537 1 5.361400 38.391112 5.870043
538 1 9.768810 28.295869 -6.782459
539 1 9.330646 30.047920 -4.974959
540 1 8.897090 31.797997 -3.167459
541 1 8.461350 33.552386 -1.359958
542 1 8.015006 35.313335 0.447542
543 1 7.564777 37.069071 2.255042
544 1 7.131617 38.816988 4.062542
545 1 6.707488 40.569163 5.870042
546 1 11.086785 30.486812 -6.782460
547 1 10.649087 32.240530 -4.974959
548 1 10.207129 33.996823 -3.167459
549 1 9.763539 35.753247 -1.359959
550 1 9.324723 37.506118 0.447541
551 1 8.890193 39.257289 2.255041
552 1 8.453175 41.013007 4.062542
553 1 8.005354 42.775502 5.870042
554 1 12.398896 32.682672 -6.782460
555 1 11.957347 34.437960 -4.974960
556 1 11.517353 36.192181 -3.167460
557 1 11.079580 37.945766 -1.359959
558 1 10.640657 39.700679 0.447541
559 1 10.197187 41.458407 2.255041
560 1 9.751700 43.216609 4.062541
561 1 9.310221 44.971892 5.870042
562 1 13.709704 34.878025 -6.782460
563 1 13.270324 36.632296 -4.974960
564 1 12.830638 38.387237 -3.167460
565 1 12.388889 40.143548 -1.359960
566 1 11.945483 41.900404 0.447541
567 1 11.503008 43.656634 2.255041
568 1 11.061787 45.412836 4.062541
569 1 10.618204 47.171030 5.870041
570 1 15.021728 37.073161 -6.782460
571 1 14.580571 38.828770 -4.974960
572 1 14.138338 40.584939 -3.167460
573 1 13.695911 42.341122 -1.359960
574 1 13.253667 44.097404 0.447540
575 1 12.810331 45.854721 2.255040
576 1 12.364188 47.613638 4.062540
577 1 11.916052 49.372925 5.870041
578 1 16.330894 39.269668 -6.782461
579 1 15.888823 41.025545 -4.974961
580 1 15.446524 42.781614 -3.167460
581 1 15.003559 44.538186 -1.359960
582 1 14.559260 46.295494 0.447540
583 1 14.113991 48.052988 2.255040
584 1 13.669673 49.809393 4.062540
585 1 13.228661 51.563648 5.870040
586 1 17.639746 41.465742 -6.782461
587 1 17.197273 43.221732 -4.974961
588 1 16.754145 44.978038 -3.167461
589 1 16.310609 46.734344 -1.359961
590 1 15.867731 48.489937 0.447539
591 1 15.426986 50.244079 2.255040
592 1 14.989423 51.996456 4.062540
593 1 14.555416 53.747194 5.870040
594 1 18.948836 43.661076 -6.782461
595 1 18.506430 45.416597 -4.974961
596 1 18.064563 47.171586 -3.167461
597 1 17.624180 48.925547 -1.359961
598 1 17.186107 50.678179 0.447539
599 1 16.750766 52.429478 2.255039
600 1 16.318181 54.179711 4.062539
601 1 15.887945 55.929447 5.870039
602 1 20.260541 45.854041 -6.782462
603 1 19.820485 47.607831 -4.974962
604 1 19.382137 49.360618 -3.167462
605 1 18.945875 51.112350 -1.359962
606 1 18.511764 52.863197 0.447538
607 1 18.079517 54.613546 2.255039
608 1 17.648455 56.363992 4.062539
609 1 17.217637 58.115187 5.870039
610 1 21.577609 48.043624 -6.782462
611 1 21.140714 49.795673 -4.974962
612 1 20.705510 51.546991 -3.167462
613 1 20.271821 53.297838 -1.359962
614 1 19.839203 55.048612 0.447538
615 1 19.407035 56.799758 2.255038
616 1 18.974764 58.551609 4.062538
617 1 22.899293 50.231031 -6.782462
618 1 22.464543 51.982277 -4.974962
619 1 22.030746 53.733367 -3.167462
620 1 21.597480 55.484615 -1.359962
621 1 21.164331 57.236286 0.447538
622 1 20.731036 58.988528 2.255038
623 1 24.222791 52.418216 -6.782463
624 1 23.788632 54.169622 -4.974963
625 1 23.354708 55.921273 -3.167462
626 1 22.920778 57.673314 -1.359962
627 1 25.545677 54.606427 -6.782463
628 1 25.111171 56.358396 -4.974963
629 1 24.676614 58.110710 -3.167463
630 1 26.867058 56.795864 -6.782463
631 1 26.431976 58.548391 -4.974963
632 1 28.186963 58.986296 -6.782463
633 2 -0.291850 7.734981 -4.974954
634 2 0.873028 9.325124 -6.782455
635 2 0.877024 11.178686 -4.974955
636 2 0.875908 13.005739 -3.167456
637 2 -0.293481 15.186874 0.447546
638 1 2.755868 11.523490 -6.782457
639 1 2.417180 13.400562 -4.974957
640 1 2.041775 15.194628 -3.167457
641 2 0.871128 16.777382 -1.359956
642 2 0.875527 18.630945 0.447544
643 2 0.874268 20.457998 2.255044
644 2 -0.295474 22.638364 5.870046
645 1 4.113274 13.788238 -6.782457
646 1 3.646271 15.637040 -4.974958
647 1 3.108970 17.353717 -3.167458
648 1 2.754371 18.976280 -1.359957
649 1 2.415295 20.853614 0.447543
650 1 2.039775 22.647668 2.255043
651 2 0.868565 24.229622 4.062545
652 2 0.873828 26.083185 5.870045
653 1 5.370320 16.025868 -6.782458
654 1 4.961664 17.769766 -4.974958
655 1 4.526961 19.490652 -3.167458
656 1 4.111355 21.241484 -1.359958
657 1 3.644306 23.090318 0.447543
658 1 3.107227 24.806874 2.255043
659 1 2.752679 26.429556 4.062543
660 1 2.412851 28.307374 5.870044
661 1 6.719747 18.199892 -6.782459
662 1 6.284438 19.952415 -4.974959
663 1 5.819968 21.716247 -3.167458
664 1 5.368346 23.479376 -1.359958
665 1 4.959697 25.223401 0.447542
666 1 4.524691 26.944603 2.255043
667 1 4.108852 28.695622 4.062543
668 1 3.641699 30.544510 5.870043
669 1 8.022309 20.401940 -6.782459
670 1 7.572558 22.156828 -4.974959
671 1 7.140056 23.903567 -3.167459
672 1 6.717402 25.653945 -1.359958
673 1 6.281897 27.406706 0.447542
674 1 5.817317 29.170747 2.255043
675 1 5.365708 30.934014 4.062543
676 1 4.957032 32.678296 5.870043
677 1 9.334004 22.592663 -6.782459
678 1 8.900768 24.342277 -4.974959
679 1 8.465435 26.096140 -3.167459
680 1 8.019504 27.856537 -1.359958
681 1 7.569646 29.611681 0.447542
682 1 7.137000 31.358761 2.255042
683 1 6.713966 33.109646 4.062542
684 1 6.277999 34.862906 5.870042
685 1 10.653403 24.784379 -6.782460
686 1 10.211896 26.540098 -4.974959
687 1 9.768810 28.295869 -3.167459
688 1 9.330646 30.047920 -1.359959
689 1 8.897090 31.797997 0.447541
690 1 8.461350 33.552386 2.255042
691 1 8.015006 35.313335 4.062542
692 1 7.564777 37.069071 5.870042
693 1 11.962906 26.980769 -6.782460
694 1 11.523615 28.734205 -4.974960
695 1 11.086785 30.486812 -3.167460
696 1 10.649087 32.240530 -1.359959
697 1 10.207129 33.996823 0.447541
698 1 9.763539 35.753247 2.255041
699 1 9.324723 37.506118 4.062541
700 1 8.890193 39.257289 5.870041
701 1 13.277705 29.173766 -6.782460
702 1 12.839183 30.927641 -4.974960
703 1 12.398896 32.682672 -3.167460
704 1 11.957347 34.437960 -1.359960
705 1 11.517353 36.192181 0.447540
706 1 11.079580 37.945766 2.255041
707 1 10.640657 39.700679 4.062541
708 1 10.197187 41.458407 5.870041
709 1 14.590460 31.368654 -6.782460
710 1 14.149935 33.123481 -4.974960
711 1 13.709704 34.878025 -3.167460
712 1 13.270324 36.632296 -1.359960
713 1 12.830638 38.387237 0.447540
714 1 12.388889 40.143548 2.255040
715 1 11.945483 41.900404 4.062541
716 1 11.503008 43.656634 5.870041
717 1 15.901857 33.563751 -6.782461
718 1 15.461889 35.318287 -4.974961
719 1 15.021728 37.073161 -3.167460
720 1 14.580571 38.828770 -1.359960
721 1 14.138338 40.584939 0.447540
722 1 13.695911 42.341122 2.255040
723 1 13.253667 44.097404 4.062540
724 1 12.810331 45.854721 5.870040
725 1 17.213447 35.758792 -6.782461
726 1 16.772530 37.514017 -4.974961
727 1 16.330894 39.269668 -3.167461
728 1 15.888823 41.025545 -1.359961
729 1 15.446524 42.781614 0.447540
730 1 15.003559 44.538186 2.255040
731 1 14.559260 46.295494 4.062540
732 1 14.113991 48.052988 5.870040
733 1 18.523475 37.954511 -6.782462
734 1 18.081775 39.710027 -4.974961
735 1 17.639746 41.465742 -3.167461
736 1 17.197273 43.221732 -1.359961
737 1 16.754145 44.978038 0.447539
738 1 16.310609 46.734344 2.255039
739 1 15.867731 48.489937 4.062539
740 1 15.426986 50.244079 5.870040
741 1 19.833116 40.149952 -6.782462
742 1 19.391136 41.905456 -4.974962
743 1 18.948836 43.661076 -3.167461
744 1 18.506430 45.416597 -1.359961
745 1 18.064563 47.171586 0.447539
746 1 17.624180 48.925547 2.255039
747 1 17.186107 50.678179 4.062539
748 1 16.750766 52.429478 5.870039
749 1 21.143326 42.344517 -6.782462
750 1 20.701695 44.099492 -4.974962
751 1 20.260541 45.854041 -3.167462
752 1 19.820485 47.607831 -1.359962
753 1 19.382137 49.360618 0.447538
754 1 18.945875 51.112350 2.255038
755 1 18.511764 52.863197 4.062538
756 1 18.079517 54.613546 5.870039
757 1 22.455902 44.537101 -6.782462
758 1 22.016108 46.290745 -4.974962
759 1 21.577609 48.043624 -3.167462
760 1 21.140714 49.795673 -1.359962
761 1 20.705510 51.546991 0.447538
762 1 20.271821 53.297838 2.255038
763 1 19.839203 55.048612 4.062538
764 1 19.407035 56.799758 5.870038
765 1 23.772624 46.727081 -6.782463
766 1 23.335287 48.479357 -4.974963
767 1 22.899293 50.231031 -3.167462
768 1 22.464543 51.982277 -1.359962
769 1 22.030746 53.733367 0.447538
770 1 21.597480 55.484615 2.255038
771 1 21.164331 57.236286 4.062538
772 1 20.731036 58.988528 5.870038
773 1 25.093044 48.915284 -6.782463
774 1 24.657498 50.666845 -4.974963
775 1 24.222791 52.418216 -3.167463
776 1 23.788632 54.169622 -1.359963
777 1 23.354708 55.921273 0.447538
778 1 22.920778 57.673314 2.255038
779 1 26.415161 51.103143 -6.782463
780 1 25.980272 52.854720 -4.974963
781 1 25.545677 54.606427 -3.167463
782 1 25.111171 56.358396 -1.359963
783 1 24.676614 58.110710 0.447537
784 1 27.737083 53.291679 -6.782463
785 1 27.302064 55.043645 -4.974963
786 1 26.867058 56.795864 -3.167463
787 1 26.431976 58.548391 -1.359963
788 1 29.057931 55.481180 -6.782463
789 1 28.622493 57.233600 -4.974963
790 1 28.186963 58.986296 -3.167463
791 1 30.377571 57.671543 -6.782464
792 2 0.878424 3.726422 -6.782455
793 2 0.877361 5.553476 -4.974955
794 2 -0.291850 7.734981 -1.359954
795 1 2.418760 5.947928 -6.782456
796 1 2.043410 7.741988 -4.974957
797 2 0.873028 9.325124 -3.167455
798 2 0.877024 11.178686 -1.359955
799 2 0.875908 13.005739 0.447544
800 2 -0.293481 15.186874 4.062546
801 1 3.647907 8.184283 -6.782457
802 1 3.110501 9.901002 -4.974957
803 1 2.755868 11.523490 -3.167457
804 1 2.417180 13.400562 -1.359957
805 1 2.041775 15.194628 0.447543
806 2 0.871128 16.777382 2.255044
807 2 0.875527 18.630945 4.062544
808 2 0.874268 20.457998 5.870044
809 1 4.963323 10.316814 -6.782458
810 1 4.528770 12.037516 -4.974958
811 1 4.113274 13.788238 -3.167457
812 1 3.646271 15.637040 -1.359958
813 1 3.108970 17.353717 0.447542
814 1 2.754371 18.976280 2.255043
815 1 2.415295 20.853614 4.062543
816 1 2.039775 22.647668 5.870043
817 1 6.286397 12.499112 -6.782458
818 1 5.821968 14.262816 -4.974958
819 1 5.370320 16.025868 -3.167458
820 1 4.961664 17.769766 -1.359958
821 1 4.526961 19.490652 0.447542
822 1 4.111355 21.241484 2.255042
823 1 3.644306 23.090318 4.062543
824 1 3.107227 24.806874 5.870043
825 1 7.574698 14.703222 -6.782459
826 1 7.142241 16.449774 -4.974959
827 1 6.719747 18.199892 -3.167459
828 1 6.284438 19.952415 -1.359959
829 1 5.819968 21.716247 0.447542
830 1 5.368346 23.479376 2.255042
831 1 4.959697 25.223401 4.062542
832 1 4.524691 26.944603 5.870043
833 1 8.903267 16.888218 -6.782460
834 1 8.468092 18.641808 -4.974959
835 1 8.022309 20.401940 -3.167459
836 1 7.572558 22.156828 -1.359959
837 1 7.140056 23.903567 0.447541
838 1 6.717402 25.653945 2.255042
839 1 6.281897 27.406706 4.062542
840 1 5.817317 29.170747 5.870043
841 1 10.214882 19.085524 -6.782460
842 1 9.771961 20.840980 -4.974960
843 1 9.334004 22.592663 -3.167459
844 1 8.900768 24.342277 -1.359959
845 1 8.465435 26.096140 0.447541
846 1 8.019504 27.856537 2.255042
847 1 7.569646 29.611681 4.062542
848 1 7.137000 31.358761 5.870042
849 1 11.527222 21.279016 -6.782460
850 1 11.090704 23.031174 -4.974960
851 1 10.653403 24.784379 -3.167460
852 1 10.211896 26.540098 -1.359959
853 1 9.768810 28.295869 0.447541
854 1 9.330646 30.047920 2.255041