# LAMMPS data file Sigma = 17, inclination = 0.000000
#LAMMPS data file
29248 atoms
2 atom types
-100.1000000000 100.1000000000 xlo xhi
-59.6201706000 59.6201706000 ylo yhi
-7.2300000000 7.2300000000 zlo zhi
0.0 0.0 0.0 xy xz yz

Atoms # atomic

1 1 0.4383815949 57.8644325805 -5.4225000000
2 1 -0.0000013949 52.1678945459 -5.4225000000
3 1 1.3151479732 54.3504463686 -5.4225000000
4 1 0.8767647841 56.1078273621 -3.6150000000
5 1 0.4383815949 57.8644325805 -1.8075000000
6 1 2.6302973413 56.5357316096 -5.4225000000
7 1 2.1919141522 58.2932981827 -3.6150000000
8 1 3.9454467095 58.7228651509 -5.4225000000
9 1 0.8767649833 48.6504722963 -5.4225000000
10 1 0.4383817942 50.4100109099 -3.6150000000
11 1 -0.0000013949 52.1678945459 -1.8075000000
12 1 2.1919143515 50.8321279815 -5.4225000000
13 1 1.7535311623 52.5920155602 -3.6150000000
14 1 1.3151479732 54.3504463686 -1.8075000000
15 1 0.8767647841 56.1078273621 0.0000000000
16 1 0.4383815949 57.8644325805 1.8075000000
17 1 3.5070637196 53.0175590886 -5.4225000000
18 1 3.0686805305 54.7772473329 -3.6150000000
19 1 2.6302973413 56.5357316096 -1.8075000000
20 1 2.1919141522 58.2932981827 0.0000000000
21 1 4.8222130878 55.2052337222 -5.4225000000
22 1 4.3838298986 56.9645407149 -3.6150000000
23 1 3.9454467095 58.7228651509 -1.8075000000
24 1 6.1373624559 57.3943220335 -5.4225000000
25 1 5.6989792668 59.1532051711 -3.6150000000
26 1 0.4383819935 42.9494967512 -5.4225000000
27 1 -0.0000011957 44.7153374153 -3.6150000000
28 1 1.7535313616 45.1217964722 -5.4225000000
29 1 1.3151481725 46.8883233736 -3.6150000000
30 1 0.8767649833 48.6504722963 -1.8075000000
31 1 0.4383817942 50.4100109099 0.0000000000
32 1 -0.0000013949 52.1678945459 1.8075000000
33 1 3.0686807298 47.3051475933 -5.4225000000
34 1 2.6302975406 49.0701623047 -3.6150000000
35 1 2.1919143515 50.8321279815 -1.8075000000
36 1 1.7535311623 52.5920155602 0.0000000000
37 1 1.3151479732 54.3504463686 1.8075000000
38 1 0.8767647841 56.1078273621 3.6150000000
39 1 0.4383815949 57.8644325805 5.4225000000
40 1 4.3838300979 49.4928103865 -5.4225000000
41 1 3.9454469088 51.2562670649 -3.6150000000
42 1 3.5070637196 53.0175590886 -1.8075000000
43 1 3.0686805305 54.7772473329 0.0000000000
44 1 2.6302973413 56.5357316096 1.8075000000
45 1 2.1919141522 58.2932981827 3.6150000000
46 1 5.6989794661 51.6825344185 -5.4225000000
47 1 5.2605962769 53.4446798713 -3.6150000000
48 1 4.8222130878 55.2052337222 -1.8075000000
49 1 4.3838298986 56.9645407149 0.0000000000
50 1 3.9454467095 58.7228651509 1.8075000000
51 1 7.0141288342 53.8733758441 -5.4225000000
52 1 6.5757456451 55.6344535516 -3.6150000000
53 1 6.1373624559 57.3943220335 -1.8075000000
54 1 5.6989792668 59.1532051711 0.0000000000
55 1 8.3292782024 56.0648744388 -5.4225000000
56 1 7.8908950132 57.8250814458 -3.6150000000
57 1 9.6444275705 58.2567810814 -5.4225000000
58 2 0.0000009964 37.7011714353 -5.4225000000
59 1 1.3151483718 39.3388122726 -5.4225000000
60 1 0.8767651826 41.1690416463 -3.6150000000
61 1 0.4383819935 42.9494967512 -1.8075000000
62 1 -0.0000011957 44.7153374153 0.0000000000
63 1 2.6302977399 41.5584971349 -5.4225000000
64 1 2.1919145508 43.3474243689 -3.6150000000
65 1 1.7535313616 45.1217964722 -1.8075000000
66 1 1.3151481725 46.8883233736 0.0000000000
67 1 0.8767649833 48.6504722963 1.8075000000
68 1 0.4383817942 50.4100109099 3.6150000000
69 1 -0.0000013949 52.1678945459 5.4225000000
70 1 3.9454471081 43.7591118680 -5.4225000000
71 1 3.5070639189 45.5355580571 -3.6150000000
72 1 3.0686807298 47.3051475933 -1.8075000000
73 1 2.6302975406 49.0701623047 0.0000000000
74 1 2.1919143515 50.8321279815 1.8075000000
75 1 1.7535311623 52.5920155602 3.6150000000
76 1 1.3151479732 54.3504463686 5.4225000000
77 1 0.8767647841 56.1078273621 7.2300000000
78 1 5.2605964762 45.9560513700 -5.4225000000
79 1 4.8222132871 47.7264121664 -3.6150000000
80 1 4.3838300979 49.4928103865 -1.8075000000
81 1 3.9454469088 51.2562670649 0.0000000000
82 1 3.5070637196 53.0175590886 1.8075000000
83 1 3.0686805305 54.7772473329 3.6150000000
84 1 2.6302973413 56.5357316096 5.4225000000
85 1 2.1919141522 58.2932981827 7.2300000000
86 1 6.5757458444 48.1516071883 -5.4225000000
87 1 6.1373626552 49.9183561876 -3.6150000000
88 1 5.6989794661 51.6825344185 -1.8075000000
89 1 5.2605962769 53.4446798713 0.0000000000
90 1 4.8222130878 55.2052337222 1.8075000000
91 1 4.3838298986 56.9645407149 3.6150000000
92 1 3.9454467095 58.7228651509 5.4225000000
93 1 7.8908952125 50.3464617463 -5.4225000000
94 1 7.4525120234 52.1108172195 -3.6150000000
95 1 7.0141288342 53.8733758441 -1.8075000000
96 1 6.5757456451 55.6344535516 0.0000000000
97 1 6.1373624559 57.3943220335 1.8075000000
98 1 5.6989792668 59.1532051711 3.6150000000
99 1 9.2060445806 52.5408923225 -5.4225000000
100 1 8.7676613915 54.3035448569 -3.6150000000
101 1 8.3292782024 56.0648744388 -1.8075000000
102 1 7.8908950132 57.8250814458 0.0000000000
103 1 10.5211939488 54.7350346842 -5.4225000000
104 1 10.0828107597 56.4964139304 -3.6150000000
105 1 9.6444275705 58.2567810814 -1.8075000000
106 1 11.8363433169 56.9289644117 -5.4225000000
107 1 11.3979601278 58.6893560537 -3.6150000000
108 1 13.1514926851 59.1227277944 -5.4225000000
109 2 1.3151503645 35.5658645498 -5.4225000000
110 2 0.8767671754 33.7817866129 -3.6150000000
111 2 0.0000009964 37.7011714353 -1.8075000000
112 1 2.1919147500 35.6182957796 -5.4225000000
113 1 1.7535315609 37.4397493008 -3.6150000000
114 1 1.3151483718 39.3388122726 -1.8075000000
115 1 0.8767651826 41.1690416463 0.0000000000
116 1 0.4383819935 42.9494967512 1.8075000000
117 1 -0.0000011957 44.7153374153 3.6150000000
118 1 3.5070641182 37.9207573002 -5.4225000000
119 1 3.0686809290 39.7465273793 -3.6150000000
120 1 2.6302977399 41.5584971349 -1.8075000000
121 1 2.1919145508 43.3474243689 0.0000000000
122 1 1.7535313616 45.1217964722 1.8075000000
123 1 1.3151481725 46.8883233736 3.6150000000
124 1 0.8767649833 48.6504722963 5.4225000000
125 1 0.4383817942 50.4100109099 7.2300000000
126 1 4.8222134863 40.1768149684 -5.4225000000
127 1 4.3838302972 41.9730996610 -3.6150000000
128 1 3.9454471081 43.7591118680 -1.8075000000
129 1 3.5070639189 45.5355580571 0.0000000000
130 1 3.0686807298 47.3051475933 1.8075000000
131 1 2.6302975406 49.0701623047 3.6150000000
132 1 2.1919143515 50.8321279815 5.4225000000
133 1 1.7535311623 52.5920155602 7.2300000000
134 1 6.1373628545 42.3992320956 -5.4225000000
135 1 5.6989796653 44.1805778585 -3.6150000000
136 1 5.2605964762 45.9560513700 -1.8075000000
137 1 4.8222132871 47.7264121664 0.0000000000
138 1 4.3838300979 49.4928103865 1.8075000000
139 1 3.9454469088 51.2562670649 3.6150000000
140 1 3.5070637196 53.0175590886 5.4225000000
141 1 3.0686805305 54.7772473329 7.2300000000
142 1 7.4525122226 44.6081626640 -5.4225000000
143 1 7.0141290335 46.3817011412 -3.6150000000
144 1 6.5757458444 48.1516071883 -1.8075000000
145 1 6.1373626552 49.9183561876 0.0000000000
146 1 5.6989794661 51.6825344185 1.8075000000
147 1 5.2605962769 53.4446798713 3.6150000000
148 1 4.8222130878 55.2052337222 5.4225000000
149 1 4.3838298986 56.9645407149 7.2300000000
150 1 8.7676615908 46.8110524708 -5.4225000000
151 1 8.3292784016 48.5799724183 -3.6150000000
152 1 7.8908952125 50.3464617463 -1.8075000000
153 1 7.4525120234 52.1108172195 0.0000000000
154 1 7.0141288342 53.8733758441 1.8075000000
155 1 6.5757456451 55.6344535516 3.6150000000
156 1 6.1373624559 57.3943220335 5.4225000000
157 1 5.6989792668 59.1532051711 7.2300000000
158 1 10.0828109589 49.0107930119 -5.4225000000
159 1 9.6444277698 50.7767061649 -3.6150000000
160 1 9.2060445806 52.5408923225 -1.8075000000
161 1 8.7676613915 54.3035448569 0.0000000000
162 1 8.3292782024 56.0648744388 1.8075000000
163 1 7.8908950132 57.8250814458 3.6150000000
164 1 11.3979603271 51.2086880771 -5.4225000000
165 1 10.9595771379 52.9725032816 -3.6150000000
166 1 10.5211939488 54.7350346842 -1.8075000000
167 1 10.0828107597 56.4964139304 0.0000000000
168 1 9.6444275705 58.2567810814 1.8075000000
169 1 12.7131096952 53.4054030837 -5.4225000000
170 1 12.2747265061 55.1676777877 -3.6150000000
171 1 11.8363433169 56.9289644117 -1.8075000000
172 1 11.3979601278 58.6893560537 0.0000000000
173 1 14.0282590634 55.6013116298 -5.4225000000
174 1 13.5898758742 57.3624104890 -3.6150000000
175 1 13.1514926851 59.1227277944 -1.8075000000
176 1 15.3434084315 57.7966396298 -5.4225000000
177 2 0.8767669761 26.3149335695 -5.4225000000
178 2 0.0000007971 30.2486141706 -3.6150000000
179 1 1.7535317602 29.8438314669 -5.4225000000
180 2 0.4383839863 32.0121328070 -5.4225000000
181 2 1.3151503645 35.5658645498 -1.8075000000
182 2 0.8767671754 33.7817866129 0.0000000000
183 2 0.0000009964 37.7011714353 1.8075000000
184 1 3.0686811283 32.0757366812 -5.4225000000
185 1 2.6302979392 33.8404758368 -3.6150000000
186 1 2.1919147500 35.6182957796 -1.8075000000
187 1 1.7535315609 37.4397493008 0.0000000000
188 1 1.3151483718 39.3388122726 1.8075000000
189 1 0.8767651826 41.1690416463 3.6150000000
190 1 0.4383819935 42.9494967512 5.4225000000
191 1 -0.0000011957 44.7153374153 7.2300000000
192 1 4.3838304965 34.3247578470 -5.4225000000
193 1 3.9454473073 36.1115003440 -3.6150000000
194 1 3.5070641182 37.9207573002 -1.8075000000
195 1 3.0686809290 39.7465273793 0.0000000000
196 1 2.6302977399 41.5584971349 1.8075000000
197 1 2.1919145508 43.3474243689 3.6150000000
198 1 1.7535313616 45.1217964722 5.4225000000
199 1 1.3151481725 46.8883233736 7.2300000000
200 1 5.6989798646 36.5808073555 -5.4225000000
201 1 5.2605966755 38.3760268367 -3.6150000000
202 1 4.8222134863 40.1768149684 -1.8075000000
203 1 4.3838302972 41.9730996610 0.0000000000
204 1 3.9454471081 43.7591118680 1.8075000000
205 1 3.5070639189 45.5355580571 3.6150000000
206 1 3.0686807298 47.3051475933 5.4225000000
207 1 2.6302975406 49.0701623047 7.2300000000
208 1 7.0141292328 38.8243758680 -5.4225000000
209 1 6.5757460436 40.6127701061 -3.6150000000
210 1 6.1373628545 42.3992320956 -1.8075000000
211 1 5.6989796653 44.1805778585 0.0000000000
212 1 5.2605964762 45.9560513700 1.8075000000
213 1 4.8222132871 47.7264121664 3.6150000000
214 1 4.3838300979 49.4928103865 5.4225000000
215 1 3.9454469088 51.2562670649 7.2300000000
216 1 8.3292786009 41.0509300512 -5.4225000000
217 1 7.8908954118 42.8309591229 -3.6150000000
218 1 7.4525122226 44.6081626640 -1.8075000000
219 1 7.0141290335 46.3817011412 0.0000000000
220 1 6.5757458444 48.1516071883 1.8075000000
221 1 6.1373626552 49.9183561876 3.6150000000
222 1 5.6989794661 51.6825344185 5.4225000000
223 1 5.2605962769 53.4446798713 7.2300000000
224 1 9.6444279691 43.2657048443 -5.4225000000
225 1 9.2060447799 45.0395647516 -3.6150000000
226 1 8.7676615908 46.8110524708 -1.8075000000
227 1 8.3292784016 48.5799724183 0.0000000000
228 1 7.8908952125 50.3464617463 1.8075000000
229 1 7.4525120234 52.1108172195 3.6150000000
230 1 7.0141288342 53.8733758441 5.4225000000
231 1 6.5757456451 55.6344535516 7.2300000000
232 1 10.9595773372 45.4734247951 -5.4225000000
233 1 10.5211941481 47.2430270595 -3.6150000000
234 1 10.0828109589 49.0107930119 -1.8075000000
235 1 9.6444277698 50.7767061649 0.0000000000
236 1 9.2060445806 52.5408923225 1.8075000000
237 1 8.7676613915 54.3035448569 3.6150000000
238 1 8.3292782024 56.0648744388 5.4225000000
239 1 7.8908950132 57.8250814458 7.2300000000
240 1 12.2747267054 47.6768764424 -5.4225000000
241 1 11.8363435162 49.4434897155 -3.6150000000
242 1 11.3979603271 51.2086880771 -1.8075000000
243 1 10.9595771379 52.9725032816 0.0000000000
244 1 10.5211939488 54.7350346842 1.8075000000
245 1 10.0828107597 56.4964139304 3.6150000000
246 1 9.6444275705 58.2567810814 5.4225000000
247 1 13.5898760735 49.8776198771 -5.4225000000
248 1 13.1514928844 51.6420641447 -3.6150000000
249 1 12.7131096952 53.4054030837 -1.8075000000
250 1 12.2747265061 55.1676777877 0.0000000000
251 1 11.8363433169 56.9289644117 1.8075000000
252 1 11.3979601278 58.6893560537 3.6150000000
253 1 14.9050254417 52.0765551721 -5.4225000000
254 1 14.4666422525 53.8393728119 -3.6150000000
255 1 14.0282590634 55.6013116298 -1.8075000000
256 1 13.5898758742 57.3624104890 0.0000000000
257 1 13.1514926851 59.1227277944 1.8075000000
258 1 16.2201748098 54.2742267068 -5.4225000000
259 1 15.7817916207 56.0357886020 -3.6150000000
260 1 15.3434084315 57.7966396298 -1.8075000000
261 1 17.5353241780 56.4709795813 -5.4225000000
262 1 17.0969409888 58.2315478313 -3.6150000000
263 1 18.8504735461 58.6670420451 -5.4225000000
264 2 0.0000005978 22.7960570196 -5.4225000000
265 2 0.4383821928 -35.0080948156 7.2300000000
266 2 1.3151501653 28.0766543573 -3.6150000000
267 2 0.8767669761 26.3149335695 -1.8075000000
268 2 0.0000007971 30.2486141706 0.0000000000
269 1 2.6302981385 26.3401773614 -5.4225000000
270 1 2.1919149493 28.0920922132 -3.6150000000
271 1 1.7535317602 29.8438314669 -1.8075000000
272 2 0.4383839863 32.0121328070 -1.8075000000
273 2 1.3151503645 35.5658645498 1.8075000000
274 2 0.8767671754 33.7817866129 3.6150000000
275 2 0.0000009964 37.7011714353 5.4225000000
276 1 3.9454475066 28.5591359759 -5.4225000000
277 1 3.5070643175 30.3161676578 -3.6150000000
278 1 3.0686811283 32.0757366812 -1.8075000000
279 1 2.6302979392 33.8404758368 0.0000000000
280 1 2.1919147500 35.6182957796 1.8075000000
281 1 1.7535315609 37.4397493008 3.6150000000
282 1 1.3151483718 39.3388122726 5.4225000000
283 1 0.8767651826 41.1690416463 7.2300000000
284 1 5.2605968748 30.7861726398 -5.4225000000
285 1 4.8222136856 32.5517462303 -3.6150000000
286 1 4.3838304965 34.3247578470 -1.8075000000
287 1 3.9454473073 36.1115003440 0.0000000000
288 1 3.5070641182 37.9207573002 1.8075000000
289 1 3.0686809290 39.7465273793 3.6150000000
290 1 2.6302977399 41.5584971349 5.4225000000
291 1 2.1919145508 43.3474243689 7.2300000000
292 1 6.5757462429 33.0208214466 -5.4225000000
293 1 6.1373630538 34.7961176077 -3.6150000000
294 1 5.6989798646 36.5808073555 -1.8075000000
295 1 5.2605966755 38.3760268367 0.0000000000
296 1 4.8222134863 40.1768149684 1.8075000000
297 1 4.3838302972 41.9730996610 3.6150000000
298 1 3.9454471081 43.7591118680 5.4225000000
299 1 3.5070639189 45.5355580571 7.2300000000
300 1 7.8908956111 35.2579392423 -5.4225000000
301 1 7.4525124219 37.0384547734 -3.6150000000
302 1 7.0141292328 38.8243758680 -1.8075000000
303 1 6.5757460436 40.6127701061 0.0000000000
304 1 6.1373628545 42.3992320956 1.8075000000
305 1 5.6989796653 44.1805778585 3.6150000000
306 1 5.2605964762 45.9560513700 5.4225000000
307 1 4.8222132871 47.7264121664 7.2300000000
308 1 9.2060449792 37.4902321330 -5.4225000000
309 1 8.7676617901 39.2699256437 -3.6150000000
310 1 8.3292786009 41.0509300512 -1.8075000000
311 1 7.8908954118 42.8309591229 0.0000000000
312 1 7.4525122226 44.6081626640 1.8075000000
313 1 7.0141290335 46.3817011412 3.6150000000
314 1 6.5757458444 48.1516071883 5.4225000000
315 1 6.1373626552 49.9183561876 7.2300000000
316 1 10.5211943474 39.7140577148 -5.4225000000
317 1 10.0828111582 41.4901534720 -3.6150000000
318 1 9.6444279691 43.2657048443 -1.8075000000
319 1 9.2060447799 45.0395647516 0.0000000000
320 1 8.7676615908 46.8110524708 1.8075000000
321 1 8.3292784016 48.5799724183 3.6150000000
322 1 7.8908952125 50.3464617463 5.4225000000
323 1 7.4525120234 52.1108172195 7.2300000000
324 1 11.8363437155 41.9299563197 -5.4225000000
325 1 11.3979605264 43.7022286018 -3.6150000000
326 1 10.9595773372 45.4734247951 -1.8075000000
327 1 10.5211941481 47.2430270595 0.0000000000
328 1 10.0828109589 49.0107930119 1.8075000000
329 1 9.6444277698 50.7767061649 3.6150000000
330 1 9.2060445806 52.5408923225 5.4225000000
331 1 8.7676613915 54.3035448569 7.2300000000
332 1 13.1514930836 44.1398711191 -5.4225000000
333 1 12.7131098945 45.9089273605 -3.6150000000
334 1 12.2747267054 47.6768764424 -1.8075000000
335 1 11.8363435162 49.4434897155 0.0000000000
336 1 11.3979603271 51.2086880771 1.8075000000
337 1 10.9595771379 52.9725032816 3.6150000000
338 1 10.5211939488 54.7350346842 5.4225000000
339 1 10.0828107597 56.4964139304 7.2300000000
340 1 14.4666424518 46.3455654944 -5.4225000000
341 1 14.0282592627 48.1120872799 -3.6150000000
342 1 13.5898760735 49.8776198771 -1.8075000000
343 1 13.1514928844 51.6420641447 0.0000000000
344 1 12.7131096952 53.4054030837 1.8075000000
345 1 12.2747265061 55.1676777877 3.6150000000
346 1 11.8363433169 56.9289644117 5.4225000000
347 1 11.3979601278 58.6893560537 7.2300000000
348 1 15.7817918199 48.5483043423 -5.4225000000
349 1 15.3434086308 50.3128522349 -3.6150000000
350 1 14.9050254417 52.0765551721 -1.8075000000
351 1 14.4666422525 53.8393728119 0.0000000000
352 1 14.0282590634 55.6013116298 1.8075000000
353 1 13.5898758742 57.3624104890 3.6150000000
354 1 13.1514926851 59.1227277944 5.4225000000
355 1 17.0969411881 50.7489396852 -5.4225000000
356 1 16.6585579990 52.5119393300 -3.6150000000
357 1 16.2201748098 54.2742267068 -1.8075000000
358 1 15.7817916207 56.0357886020 0.0000000000
359 1 15.3434084315 57.7966396298 1.8075000000
360 1 18.4120905562 52.9480419156 -5.4225000000
361 1 17.9737073671 54.7098107150 -3.6150000000
362 1 17.5353241780 56.4709795813 -1.8075000000
363 1 17.0969409888 58.2315478313 0.0000000000
364 1 19.7272399244 55.1459985113 -5.4225000000
365 1 19.2888567352 56.9067740347 -3.6150000000
366 1 18.8504735461 58.6670420451 -1.8075000000
367 1 21.0423892925 57.3430784889 -5.4225000000
368 1 20.6040061034 59.1030406760 -3.6150000000
369 2 1.3151499660 20.6174760905 -5.4225000000
370 2 0.8767667768 18.8589659239 -3.6150000000
371 2 0.0000005978 22.7960570196 -1.8075000000
372 1 2.1919151486 20.6270723981 -5.4225000000
373 1 1.7535319595 22.3775126696 -3.6150000000
374 2 0.4383837870 24.5549220611 -3.6150000000
375 2 1.3151501653 28.0766543573 0.0000000000
376 2 0.8767669761 26.3149335695 1.8075000000
377 2 0.0000007971 30.2486141706 3.6150000000
378 1 3.5070645167 22.8361665897 -5.4225000000
379 1 3.0686813276 24.5881840111 -3.6150000000
380 1 2.6302981385 26.3401773614 -1.8075000000
381 1 2.1919149493 28.0920922132 0.0000000000
382 1 1.7535317602 29.8438314669 1.8075000000
383 2 0.4383839863 32.0121328070 1.8075000000
384 2 1.3151503645 35.5658645498 5.4225000000
385 2 0.8767671754 33.7817866129 7.2300000000
386 1 4.8222138849 25.0488648691 -5.4225000000
387 1 4.3838306958 26.8035454252 -3.6150000000
388 1 3.9454475066 28.5591359759 -1.8075000000
389 1 3.5070643175 30.3161676578 0.0000000000
390 1 3.0686811283 32.0757366812 1.8075000000
391 1 2.6302979392 33.8404758368 3.6150000000
392 1 2.1919147500 35.6182957796 5.4225000000
393 1 1.7535315609 37.4397493008 7.2300000000
394 1 6.1373632530 27.2660400970 -5.4225000000
395 1 5.6989800639 29.0248195216 -3.6150000000
396 1 5.2605968748 30.7861726398 -1.8075000000
397 1 4.8222136856 32.5517462303 0.0000000000
398 1 4.3838304965 34.3247578470 1.8075000000
399 1 3.9454473073 36.1115003440 3.6150000000
400 1 3.5070641182 37.9207573002 5.4225000000
401 1 3.0686809290 39.7465273793 7.2300000000
402 1 7.4525126212 29.4880435026 -5.4225000000
403 1 7.0141294320 31.2521954289 -3.6150000000
404 1 6.5757462429 33.0208214466 -1.8075000000
405 1 6.1373630538 34.7961176077 0.0000000000
406 1 5.6989798646 36.5808073555 1.8075000000
407 1 5.2605966755 38.3760268367 3.6150000000
408 1 4.8222134863 40.1768149684 5.4225000000
409 1 4.3838302972 41.9730996610 7.2300000000
410 1 8.7676619893 31.7138744794 -5.4225000000
411 1 8.3292788002 33.4833604983 -3.6150000000
412 1 7.8908956111 35.2579392423 -1.8075000000
413 1 7.4525124219 37.0384547734 0.0000000000
414 1 7.0141292328 38.8243758680 1.8075000000
415 1 6.5757460436 40.6127701061 3.6150000000
416 1 6.1373628545 42.3992320956 5.4225000000
417 1 5.6989796653 44.1805778585 7.2300000000
418 1 10.0828113575 33.9407765260 -5.4225000000
419 1 9.6444281683 35.7136056233 -3.6150000000
420 1 9.2060449792 37.4902321330 -1.8075000000
421 1 8.7676617901 39.2699256437 0.0000000000
422 1 8.3292786009 41.0509300512 1.8075000000
423 1 7.8908954118 42.8309591229 3.6150000000
424 1 7.4525122226 44.6081626640 5.4225000000
425 1 7.0141290335 46.3817011412 7.2300000000
426 1 11.3979607256 36.1653313010 -5.4225000000
427 1 10.9595775365 37.9387481232 -3.6150000000
428 1 10.5211943474 39.7140577148 -1.8075000000
429 1 10.0828111582 41.4901534720 0.0000000000
430 1 9.6444279691 43.2657048443 1.8075000000
431 1 9.2060447799 45.0395647516 3.6150000000
432 1 8.7676615908 46.8110524708 5.4225000000
433 1 8.3292784016 48.5799724183 7.2300000000
434 1 12.7131100938 38.3852825448 -5.4225000000
435 1 12.2747269046 40.1573609082 -3.6150000000
436 1 11.8363437155 41.9299563197 -1.8075000000
437 1 11.3979605264 43.7022286018 0.0000000000
438 1 10.9595773372 45.4734247951 1.8075000000
439 1 10.5211941481 47.2430270595 3.6150000000
440 1 10.0828109589 49.0107930119 5.4225000000
441 1 9.6444277698 50.7767061649 7.2300000000
442 1 14.0282594619 40.6001274156 -5.4225000000
443 1 13.5898762728 42.3700983778 -3.6150000000
444 1 13.1514930836 44.1398711191 -1.8075000000
445 1 12.7131098945 45.9089273605 0.0000000000
446 1 12.2747267054 47.6768764424 1.8075000000
447 1 11.8363435162 49.4434897155 3.6150000000
448 1 11.3979603271 51.2086880771 5.4225000000
449 1 10.9595771379 52.9725032816 7.2300000000
450 1 15.3434088301 42.8104468580 -5.4225000000
451 1 14.9050256409 44.5782529094 -3.6150000000
452 1 14.4666424518 46.3455654944 -1.8075000000
453 1 14.0282592627 48.1120872799 0.0000000000
454 1 13.5898760735 49.8776198771 1.8075000000
455 1 13.1514928844 51.6420641447 3.6150000000
456 1 12.7131096952 53.4054030837 5.4225000000
457 1 12.2747265061 55.1676777877 7.2300000000
458 1 16.6585581982 45.0171411438 -5.4225000000
459 1 16.2201750091 46.7830116659 -3.6150000000
460 1 15.7817918199 48.5483043423 -1.8075000000
461 1 15.3434086308 50.3128522349 0.0000000000
462 1 14.9050254417 52.0765551721 1.8075000000
463 1 14.4666422525 53.8393728119 3.6150000000
464 1 14.0282590634 55.6013116298 5.4225000000
465 1 13.5898758742 57.3624104890 7.2300000000
466 1 17.9737075664 47.2210465321 -5.4225000000
467 1 17.5353243772 48.9852776348 -3.6150000000
468 1 17.0969411881 50.7489396852 -1.8075000000
469 1 16.6585579990 52.5119393300 0.0000000000
470 1 16.2201748098 54.2742267068 1.8075000000
471 1 15.7817916207 56.0357886020 3.6150000000
472 1 15.3434084315 57.7966396298 5.4225000000
473 1 19.2888569345 49.4228278021 -5.4225000000
474 1 18.8504737454 51.1856969181 -3.6150000000
475 1 18.4120905562 52.9480419156 -1.8075000000
476 1 17.9737073671 54.7098107150 0.0000000000
477 1 17.5353241780 56.4709795813 1.8075000000
478 1 17.0969409888 58.2315478313 3.6150000000
479 1 20.6040063027 51.6229836611 -5.4225000000
480 1 20.1656231135 53.3847254733 -3.6150000000
481 1 19.7272399244 55.1459985113 -1.8075000000
482 1 19.2888567352 56.9067740347 0.0000000000
483 1 18.8504735461 58.6670420451 1.8075000000
484 1 21.9191556708 53.8218814901 -5.4225000000
485 1 21.4807724817 55.5826869643 -3.6150000000
486 1 21.0423892925 57.3430784889 -1.8075000000
487 1 20.6040061034 59.1030406760 0.0000000000
488 1 23.2343050390 56.0197919024 -5.4225000000
489 1 22.7959218498 57.7798143930 -3.6150000000
490 1 24.5494544071 58.2169159026 -5.4225000000
491 2 0.8767665776 11.4050842060 -5.4225000000
492 2 0.0000003986 15.3434998736 -3.6150000000
493 1 1.7535321587 14.9204689816 -5.4225000000
494 2 0.4383835877 17.1010220427 -5.4225000000
495 2 1.3151499660 20.6174760905 -1.8075000000
496 2 0.8767667768 18.8589659239 0.0000000000
497 2 0.0000005978 22.7960570196 1.8075000000
498 1 3.0686815269 17.1254383301 -5.4225000000
499 1 2.6302983377 18.8763481285 -3.6150000000
500 1 2.1919151486 20.6270723981 -1.8075000000
501 1 1.7535319595 22.3775126696 0.0000000000
502 2 0.4383837870 24.5549220611 0.0000000000
503 2 1.3151501653 28.0766543573 3.6150000000
504 2 0.8767669761 26.3149335695 5.4225000000
505 2 0.0000007971 30.2486141706 7.2300000000
506 1 4.3838308950 19.3321869909 -5.4225000000
507 1 3.9454477059 21.0841595077 -3.6150000000
508 1 3.5070645167 22.8361665897 -1.8075000000
509 1 3.0686813276 24.5881840111 0.0000000000
510 1 2.6302981385 26.3401773614 1.8075000000
511 1 2.1919149493 28.0920922132 3.6150000000
512 1 1.7535317602 29.8438314669 5.4225000000
513 2 0.4383839863 32.0121328070 5.4225000000
514 1 5.6989802632 21.5412112067 -5.4225000000
515 1 5.2605970740 23.2948085942 -3.6150000000
516 1 4.8222138849 25.0488648691 -1.8075000000
517 1 4.3838306958 26.8035454252 0.0000000000
518 1 3.9454475066 28.5591359759 1.8075000000
519 1 3.5070643175 30.3161676578 3.6150000000
520 1 3.0686811283 32.0757366812 5.4225000000
521 1 2.6302979392 33.8404758368 7.2300000000
522 1 7.0141296313 23.7530018069 -5.4225000000
523 1 6.5757464422 25.5089398760 -3.6150000000
524 1 6.1373632530 27.2660400970 -1.8075000000
525 1 5.6989800639 29.0248195216 0.0000000000
526 1 5.2605968748 30.7861726398 1.8075000000
527 1 4.8222136856 32.5517462303 3.6150000000
528 1 4.3838304965 34.3247578470 5.4225000000
529 1 3.9454473073 36.1115003440 7.2300000000
530 1 8.3292789995 25.9678841795 -5.4225000000
531 1 7.8908958103 27.7269135904 -3.6150000000
532 1 7.4525126212 29.4880435026 -1.8075000000
533 1 7.0141294320 31.2521954289 0.0000000000
534 1 6.5757462429 33.0208214466 1.8075000000
535 1 6.1373630538 34.7961176077 3.6150000000
536 1 5.6989798646 36.5808073555 5.4225000000
537 1 5.2605966755 38.3760268367 7.2300000000
538 1 9.6444283676 28.1857398681 -5.4225000000
539 1 9.2060451785 29.9483321086 -3.6150000000
540 1 8.7676619893 31.7138744794 -1.8075000000
541 1 8.3292788002 33.4833604983 0.0000000000
542 1 7.8908956111 35.2579392423 1.8075000000
543 1 7.4525124219 37.0384547734 3.6150000000
544 1 7.0141292328 38.8243758680 5.4225000000
545 1 6.5757460436 40.6127701061 7.2300000000
546 1 10.9595777358 30.4057141539 -5.4225000000
547 1 10.5211945466 32.1716453218 -3.6150000000
548 1 10.0828113575 33.9407765260 -1.8075000000
549 1 9.6444281683 35.7136056233 0.0000000000
550 1 9.2060449792 37.4902321330 1.8075000000
551 1 8.7676617901 39.2699256437 3.6150000000
552 1 8.3292786009 41.0509300512 5.4225000000
553 1 7.8908954118 42.8309591229 7.2300000000
554 1 12.2747271039 32.6262069544 -5.4225000000
555 1 11.8363439148 34.3944333830 -3.6150000000
556 1 11.3979607256 36.1653313010 -1.8075000000
557 1 10.9595775365 37.9387481232 0.0000000000
558 1 10.5211943474 39.7140577148 1.8075000000
559 1 10.0828111582 41.4901534720 3.6150000000
560 1 9.6444279691 43.2657048443 5.4225000000
561 1 9.2060447799 45.0395647516 7.2300000000
562 1 13.5898764721 34.8453669860 -5.4225000000
563 1 13.1514932829 36.6144548461 -3.6150000000
564 1 12.7131100938 38.3852825448 -1.8075000000
565 1 12.2747269046 40.1573609082 0.0000000000
566 1 11.8363437155 41.9299563197 1.8075000000
567 1 11.3979605264 43.7022286018 3.6150000000
568 1 10.9595773372 45.4734247951 5.4225000000
569 1 10.5211941481 47.2430270595 7.2300000000
570 1 14.9050258402 37.0617905457 -5.4225000000
571 1 14.4666426511 38.8305220452 -3.6150000000
572 1 14.0282594619 40.6001274156 -1.8075000000
573 1 13.5898762728 42.3700983778 0.0000000000
574 1 13.1514930836 44.1398711191 1.8075000000
575 1 12.7131098945 45.9089273605 3.6150000000
576 1 12.2747267054 47.6768764424 5.4225000000
577 1 11.8363435162 49.4434897155 7.2300000000
578 1 16.2201752084 39.2748639045 -5.4225000000
579 1 15.7817920192 41.0425183276 -3.6150000000
580 1 15.3434088301 42.8104468580 -1.8075000000
581 1 14.9050256409 44.5782529094 0.0000000000
582 1 14.4666424518 46.3455654944 1.8075000000
583 1 14.0282592627 48.1120872799 3.6150000000
584 1 13.5898760735 49.8776198771 5.4225000000
585 1 13.1514928844 51.6420641447 7.2300000000
586 1 17.5353245765 41.4846296219 -5.4225000000
587 1 17.0969413874 43.2509223535 -3.6150000000
588 1 16.6585581982 45.0171411438 -1.8075000000
589 1 16.2201750091 46.7830116659 0.0000000000
590 1 15.7817918199 48.5483043423 1.8075000000
591 1 15.3434086308 50.3128522349 3.6150000000
592 1 14.9050254417 52.0765551721 5.4225000000
593 1 14.4666422525 53.8393728119 7.2300000000
594 1 18.8504739447 43.6914744670 -5.4225000000
595 1 18.4120907555 45.4563854558 -3.6150000000
596 1 17.9737075664 47.2210465321 -1.8075000000
597 1 17.5353243772 48.9852776348 0.0000000000
598 1 17.0969411881 50.7489396852 1.8075000000
599 1 16.6585579990 52.5119393300 3.6150000000
600 1 16.2201748098 54.2742267068 5.4225000000
601 1 15.7817916207 56.0357886020 7.2300000000
602 1 20.1656233128 45.8958845986 -5.4225000000
603 1 19.7272401237 47.6595184336 -3.6150000000
604 1 19.2888569345 49.4228278021 -1.8075000000
605 1 18.8504737454 51.1856969181 0.0000000000
606 1 18.4120905562 52.9480419156 1.8075000000
607 1 17.9737073671 54.7098107150 3.6150000000
608 1 17.5353241780 56.4709795813 5.4225000000
609 1 17.0969409888 58.2315478313 7.2300000000
610 1 21.4807726810 48.0983195404 -5.4225000000
611 1 21.0423894918 49.8608236696 -3.6150000000
612 1 20.6040063027 51.6229836611 -1.8075000000
613 1 20.1656231135 53.3847254733 0.0000000000
614 1 19.7272399244 55.1459985113 1.8075000000
615 1 19.2888567352 56.9067740347 3.6150000000
616 1 18.8504735461 58.6670420451 5.4225000000
617 1 22.7959220491 50.2991675418 -5.4225000000
618 1 22.3575388600 52.0606925572 -3.6150000000
619 1 21.9191556708 53.8218814901 -1.8075000000
620 1 21.4807724817 55.5826869643 0.0000000000
621 1 21.0423892925 57.3430784889 1.8075000000
622 1 20.6040061034 59.1030406760 3.6150000000
623 1 24.1110714173 52.4987404959 -5.4225000000
624 1 23.6726882281 54.2594238131 -3.6150000000
625 1 23.2343050390 56.0197919024 -1.8075000000
626 1 22.7959218498 57.7798143930 0.0000000000
627 1 25.4262207854 54.6972835741 -5.4225000000
628 1 24.9878375963 56.4572444779 -3.6150000000
629 1 24.5494544071 58.2169159026 -1.8075000000
630 1 26.7413701536 56.8949881714 -5.4225000000
631 1 26.3029869644 58.6543278302 -3.6150000000
632 1 28.0565195217 59.0920038534 -5.4225000000
633 2 0.0000001993 7.8909427288 -5.4225000000
634 2 1.3151485710 -31.5208827540 7.2300000000
635 2 1.3151497667 13.1624725330 -3.6150000000
636 2 0.8767665776 11.4050842060 -1.8075000000
637 2 0.0000003986 15.3434998736 0.0000000000