LAMMPS data file via write_data, version 29 Aug 2024, timestep = 531, units = metal

29248 atoms
2 atom types

-100.1 100.1 xlo xhi
-59.6201706 59.6201706 ylo yhi
-7.23 7.23 zlo zhi
0 0 0 xy xz yz

Masses

1 63.55
2 63.55

Atoms # atomic

1 1 0.6696682603472084 58.05044358453302 -6.780476551193594 0 0 0
2 1 0.2869577041619351 52.38923639935093 -6.780474928779449 0 0 0
3 1 1.3244644598874231 54.55148710314287 -6.7804759094918445 0 0 0
4 1 0.971679877337408 56.18156529127321 -4.972976385211899 0 0 0
5 1 0.6696682627481181 58.050443580267334 -3.1654765565081537 0 0 0
6 1 2.7603293389221477 56.65475478046354 -6.780475788568698 0 0 0
7 1 2.3602159315500018 58.41266970055138 -4.97297620488788 0 0 0
8 1 4.0621953408092395 58.862767611693165 -6.780475609904115 0 0 0
9 1 0.9457006501127552 48.71819457676647 -6.780474390803035 0 0 0
10 1 0.6481977642441876 50.58346814824068 -4.97297483766594 0 0 0
11 1 0.28695746215507256 52.38923622271954 -3.1654749137409564 0 0 0
12 1 2.336531462207276 50.94207091692679 -6.7804744811445685 0 0 0
13 1 1.8780496650474703 52.80975966693544 -4.972975132485664 0 0 0
14 1 1.3244644838800639 54.551487231175905 -3.165475911744083 0 0 0
15 1 0.9716798740010262 56.18156529337494 -1.3579764151008065 0 0 0
16 1 0.6696682602905923 58.0504435845368 0.4495234488267133 0 0 0
17 1 3.5851721568529484 53.17042066932387 -6.780474857804624 0 0 0
18 1 3.1776129835911604 54.930090327829554 -4.972975443002676 0 0 0
19 1 2.76032932366725 56.65475475998942 -3.1654757860065112 0 0 0
20 1 2.360215928944882 58.41266969187688 -1.357976200525686 0 0 0
21 1 4.938906396674383 55.32344890941342 -6.780475071151273 0 0 0
22 1 4.517461277330355 57.08712777956138 -4.972975289907822 0 0 0
23 1 4.0621953432714974 58.8627676151446 -3.1654756099065775 0 0 0
24 1 6.250120591922752 57.50847341010881 -6.780474971375427 0 0 0
25 1 5.808220254240837 59.277124444874424 -4.972975366219094 0 0 0
26 1 0.6288512536592918 43.0980498114342 -6.780474419984796 0 0 0
27 1 0.28059659347763954 44.927791645108464 -4.972974143073849 0 0 0
28 1 1.856350408270984 45.30686806341361 -6.780474091356917 0 0 0
29 1 1.3075320562120964 47.083791952497215 -4.972974411882755 0 0 0
30 1 0.9457006065631646 48.71819463434024 -3.165474379108336 0 0 0
31 1 0.6481978029439688 50.58346816684175 -1.3579750027541186 0 0 0
32 1 0.28695769974427776 52.389236397223094 0.4495250714545419 0 0 0
33 1 3.140362581081419 47.43002967684992 -6.78047395940315 0 0 0
34 1 2.7339392464418353 49.176614296673186 -4.97297405005185 0 0 0
35 1 2.336531439420071 50.94207087887981 -3.165474434203635 0 0 0
36 1 1.8780496499486503 52.809759637161044 -1.3579750293623165 0 0 0
37 1 1.3244644603170599 54.551487104884124 0.4495240905703751 0 0 0
38 1 0.9716798775252897 56.18156529094505 2.2570236147125273 0 0 0
39 1 0.6696682627158879 58.050443580272905 4.064523443465538 0 0 0
40 1 4.479762341417711 49.5904600945809 -6.7804738518745715 0 0 0
41 1 4.0322273379481715 51.38357868680108 -4.9729742474070875 0 0 0
42 1 3.5851721776145666 53.17042067734848 -3.1654748725371964 0 0 0
43 1 3.177612991001368 54.93009034889618 -1.3579754518439082 0 0 0
44 1 2.7603293387537775 56.65475478020536 0.4495242114313875 0 0 0
45 1 2.360215931581749 58.412669700569516 2.257023795121739 0 0 0
46 1 5.7687155736316384 51.787774867675886 -6.780473974728488 0 0 0
47 1 5.3475084530966654 53.558625666777935 -4.972974571341233 0 0 0
48 1 4.938906393085446 55.32344890408418 -3.165475065731858 0 0 0
49 1 4.5174612715401565 57.08712777032692 -1.3579752864543189 0 0 0
50 1 4.062195340830854 58.86276761173681 0.44952439010248346 0 0 0
51 1 7.102645302948346 53.961464051189544 -6.780474310663613 0 0 0
52 1 6.683438146293312 55.73305387155309 -4.9729748341779425 0 0 0
53 1 6.25012059507965 57.50847341037166 -3.165474977357434 0 0 0
54 1 5.808220256468346 59.27712444793709 -1.3579753685308427 0 0 0
55 1 8.424114351304596 56.147389000521365 -6.7804745574355465 0 0 0
56 1 7.9938632093493 57.91937058011498 -4.972974675408134 0 0 0
57 1 9.745015979929946 58.33001330103661 -6.780474396934485 0 0 0
58 2 -0.3690072774021331 37.498390518540354 -4.972973759675746 0 0 0
59 1 0.7777590129990841 39.16320021701036 -6.78047286910256 0 0 0
60 1 0.7950489740286457 41.05832659565353 -4.97297358225236 0 0 0
61 1 0.6288512387443319 43.09804980858697 -3.1654743911480865 0 0 0
62 1 0.28059654815452006 44.9277915951587 -1.357974148893769 0 0 0
63 1 2.5613636521460563 41.51908685161471 -6.780472871673876 0 0 0
64 1 2.266512200226387 43.36041701613856 -4.972973561478707 0 0 0
65 1 1.8563504225640628 45.306868060592585 -3.165474099968224 0 0 0
66 1 1.3075320509862536 47.083791949148114 -1.3579743878998205 0 0 0
67 1 0.9457006588369268 48.718194562273844 0.4495256175875029 0 0 0
68 1 0.6481977638627114 50.5834681490085 2.2570251633299305 0 0 0
69 1 0.2869574594291464 52.38923622139823 4.064525085876542 0 0 0
70 1 3.9412105872836207 43.79602509640393 -6.780472996247185 0 0 0
71 1 3.5312224181576966 45.62615061101628 -4.9729736640638835 0 0 0
72 1 3.140362589582139 47.43002967027211 -3.1654739652082147 0 0 0
73 1 2.7339392290718507 49.17661431225874 -1.3579740507967466 0 0 0
74 1 2.336531462927965 50.94207091866388 0.44952551845283345 0 0 0
75 1 1.8780496659449142 52.80975966686771 2.2570248678297546 0 0 0
76 1 1.3244644841467164 54.5514872322509 4.064524088147521 0 0 0
77 1 0.9716798739594594 56.18156529345588 5.872023584567291 0 0 0
78 1 5.276358872145764 46.010839474574674 -6.780473219129041 0 0 0
79 1 4.886103756575949 47.801326841478065 -4.972973639645835 0 0 0
80 1 4.479762344133704 49.5904600920282 -3.165473847709628 0 0 0
81 1 4.032227331400392 51.38357867987022 -1.3579742424596462 0 0 0
82 1 3.5851721568713373 53.17042066883278 0.44952514247886444 0 0 0
83 1 3.177612983403563 54.93009032778635 2.2570245570081826 0 0 0
84 1 2.7603293235638517 56.6547547598333 4.06452421399598 0 0 0
85 1 2.360215928938814 58.41266969187449 5.872023799505398 0 0 0
86 1 6.623259084757194 48.209137918103245 -6.780473251147715 0 0 0
87 1 6.201640665683826 50.001421771419835 -4.972973468105119 0 0 0
88 1 5.768715573053768 51.78777486975162 -3.1654739882631855 0 0 0
89 1 5.34750846139022 53.55862567870363 -1.3579745795364961 0 0 0
90 1 4.938906396732747 55.32344890952728 0.4495249288294426 0 0 0
91 1 4.517461277385394 57.08712777957816 2.257024710096362 0 0 0
92 1 4.0621953432875415 58.862767615176516 4.064524390079843 0 0 0
93 1 7.9393851364001335 50.4123424175418 -6.7804729190026425 0 0 0
94 1 7.518727476899443 52.18957533684482 -4.9729734513754975 0 0 0
95 1 7.102645304629817 53.96146405207903 -3.1654743071106854 0 0 0
96 1 6.683438141157822 55.733053867605996 -1.3579748354621768 0 0 0
97 1 6.250120591914595 57.50847341008713 0.4495250286312689 0 0 0
98 1 5.8082202542344135 59.277124444869095 2.2570246337797357 0 0 0
99 1 9.26945659292862 52.600844738853276 -6.780473338139456 0 0 0
100 1 8.849662600598307 54.373366722309605 -4.972974145895312 0 0 0
101 1 8.424114353854662 56.147389001785534 -3.165474555771445 0 0 0
102 1 7.993863212167241 57.919370583890434 -1.3579746738139011 0 0 0
103 1 10.59597593767036 54.790831225098195 -6.780474035190547 0 0 0
104 1 10.170228446893162 56.56165185557264 -4.972974213348238 0 0 0
105 1 9.745015978690361 58.33001330251742 -3.165474396080857 0 0 0
106 1 11.92114294648863 56.978386740327345 -6.780474225811835 0 0 0
107 1 11.497573576147687 58.74435870630122 -4.972974359482314 0 0 0
108 1 13.25036853323968 59.1628235636252 -6.780474370264365 0 0 0
109 2 0.8266120129431016 35.37270474861901 -4.972972378905635 0 0 0
110 2 0.8412288915770461 33.5432701028767 -3.1654715144369097 0 0 0
111 2 -0.3690071131450594 37.498390426631225 -1.357973768927839 0 0 0
112 1 2.344085113313227 35.83704898721951 -6.780471382862077 0 0 0
113 1 1.960446470386728 37.63285769548494 -4.972971434498541 0 0 0
114 1 0.7777590099230309 39.163200213639094 -3.165472874452579 0 0 0
115 1 0.7950489822931672 41.0583265724299 -1.3579735793747438 0 0 0
116 1 0.628851212745019 43.0980498098637 0.4495256161987684 0 0 0
117 1 0.2805964118508939 44.92779150012121 2.2570258575855844 0 0 0
118 1 3.5475357931844513 38.10355824798102 -6.7804713443587765 0 0 0
119 1 2.9949048657335453 39.83829443110495 -4.972972253870203 0 0 0
120 1 2.561363650816503 41.51908685398569 -3.165472845945519 0 0 0
121 1 2.2665122405061737 43.36041702026568 -1.3579735803976647 0 0 0
122 1 1.856350447829783 45.306868074885735 0.4495258769883833 0 0 0
123 1 1.3075320867407925 47.083792048771976 2.2570255867021625 0 0 0
124 1 0.9457006119292117 48.71819462542485 4.064525607254244 0 0 0
125 1 0.6481978030329856 50.583468166659394 5.872025001404335 0 0 0
126 1 4.806177949827088 40.280567469883785 -6.780471756890783 0 0 0
127 1 4.372255680515963 42.01194798653784 -4.972972327819705 0 0 0
128 1 3.9412105976888085 43.796025101714214 -3.165473007347093 0 0 0
129 1 3.531222417461578 45.62615060727476 -1.357973653347304 0 0 0
130 1 3.1403625709342293 47.430029670113406 0.44952604218202197 0 0 0
131 1 2.7339392345232056 49.17661428200524 2.257025950457254 0 0 0
132 1 2.3365314398670733 50.94207087995414 4.0645255664599445 0 0 0
133 1 1.8780496497361412 52.80975963717213 5.872024971964103 0 0 0
134 1 6.130330013941688 42.47188660567307 -6.780472036054867 0 0 0
135 1 5.688611658105543 44.234810877100905 -4.972972523222715 0 0 0
136 1 5.276358867966749 46.0108394778695 -3.165473223501009 0 0 0
137 1 4.886103769279686 47.80132684335856 -1.3579736416062105 0 0 0
138 1 4.479762344361376 49.59046009663975 0.44952614728454515 0 0 0
139 1 4.032227339411705 51.383578689375575 2.2570257524397146 0 0 0
140 1 3.5851721776353287 53.17042067705453 4.064525127008262 0 0 0
141 1 3.17761299104734 54.93009034890422 5.872024548188704 0 0 0
142 1 7.454370693151475 44.6682271553176 -6.780472256569471 0 0 0
143 1 7.034900472055597 46.43106099193724 -4.972972918846332 0 0 0
144 1 6.623259085227673 48.20913791542193 -3.16547324749175 0 0 0
145 1 6.201640666634191 50.001421767919545 -1.3579734676006756 0 0 0
146 1 5.768715573058813 51.787774867129095 0.449526025336196 0 0 0
147 1 5.34750845281512 53.55862566635991 2.257025428695672 0 0 0
148 1 4.938906393124071 55.32344890415825 4.064524934302351 0 0 0
149 1 4.517461271526727 57.08712777032388 5.872024713557642 0 0 0
150 1 8.790515750802868 46.86288872065291 -6.780472539044391 0 0 0
151 1 8.36457050427748 48.63392175306418 -4.972972721427526 0 0 0
152 1 7.9393851369692925 50.412342417722165 -3.165472916259708 0 0 0
153 1 7.518727475161398 52.189575336744774 -1.3579734507185888 0 0 0
154 1 7.102645303070574 53.96146405130602 0.44952568932434717 0 0 0
155 1 6.683438146335561 55.73305387161857 2.257025165811651 0 0 0
156 1 6.250120595075828 57.508473410360885 4.064525022633563 0 0 0
157 1 5.808220256467365 59.27712444793763 5.8720246314708815 0 0 0
158 1 10.114732749084453 49.06174199348791 -6.780472499696473 0 0 0
159 1 9.68952208673781 50.83015549913184 -4.972972699831458 0 0 0
160 1 9.269456592872032 52.600844740109885 -3.1654733331648113 0 0 0
161 1 8.84966259905373 54.37336672072875 -1.3579741443990352 0 0 0
162 1 8.424114351280636 56.14738900049468 0.44952544256385846 0 0 0
163 1 7.9938632093509625 57.919370580103056 2.2570253245947773 0 0 0
164 1 11.44376024728129 51.25426475007952 -6.780472887172235 0 0 0
165 1 11.02006998075268 53.02089153654139 -4.972973420799116 0 0 0
166 1 10.595975938710367 54.79083122545946 -3.165474036425886 0 0 0
167 1 10.17022845129432 56.56165186027051 -1.3579742130571508 0 0 0
168 1 9.745015979933541 58.330013301036495 0.4495256030644038 0 0 0
169 1 12.772129554413041 53.445847164957506 -6.7804736654328766 0 0 0
170 1 12.346078562695823 55.21171858582036 -4.97297424064995 0 0 0
171 1 11.921142946174612 56.978386741023435 -3.1654742231389137 0 0 0
172 1 11.497573574528516 58.74435870735348 -1.3579743595682423 0 0 0
173 1 14.099681436891672 55.635545860794004 -6.780474329168584 0 0 0
174 1 13.674539089081236 57.39887965461778 -4.972974403469249 0 0 0
175 1 13.250368531839513 59.162823561269356 -3.165474369069319 0 0 0
176 1 15.429354657862206 57.822735792744474 -6.78047449533504 0 0 0
177 2 0.8556148625019517 26.0865905281048 -4.972968877211289 0 0 0
178 2 -0.3376898842063554 30.063704170719255 -3.1654718583215935 0 0 0
179 1 1.9962855723914572 30.138737424195476 -6.780468452477631 0 0 0
180 2 0.8017834908245618 31.686410885738688 -4.972970924544486 0 0 0
181 2 0.8266118215125715 35.372704831194106 -1.3579723695273587 0 0 0
182 2 0.8412288960939946 33.54327010520017 0.4495285032489954 0 0 0
183 2 -0.36900729483843975 37.498390528273084 2.257026240121317 0 0 0
184 1 3.0725418984255555 32.30416093912353 -6.780469161449028 0 0 0
185 1 2.7178141040219828 33.93323904639606 -4.9729700034491655 0 0 0
186 1 2.3440851196381374 35.83704898908527 -3.165471474902997 0 0 0
187 1 1.9604462964778975 37.6328576765768 -1.357971432025719 0 0 0
188 1 0.7777590123219085 39.16320021790087 0.4495271305779496 0 0 0
189 1 0.7950489767353872 41.05832659967398 2.2570264174968484 0 0 0
190 1 0.6288512136436708 43.09804980762308 4.0645255500818775 0 0 0
191 1 0.2805965914988491 44.92779162972882 5.872025853913391 0 0 0
192 1 4.4625958663511085 34.477163640568186 -6.780469889041773 0 0 0
193 1 4.03271256654395 36.23863572044923 -4.972971085183713 0 0 0
194 1 3.547535790390569 38.1035582401447 -3.1654714050951043 0 0 0
195 1 2.9949048596821086 39.83829447674764 -1.3579722619279904 0 0 0
196 1 2.5613636570537466 41.51908684618851 0.44952712999896516 0 0 0
197 1 2.266512203946178 43.36041700700999 2.257026443360962 0 0 0
198 1 1.8563504468818763 45.30686806763676 4.064525951533525 0 0 0
199 1 1.307532043705237 47.08379192618569 5.872025606155453 0 0 0
200 1 5.724769116231926 36.731804450061865 -6.780470650117895 0 0 0
201 1 5.253198189746328 38.511890021790585 -4.972971252868565 0 0 0
202 1 4.806177951474197 40.28056747056416 -3.165471754563021 0 0 0
203 1 4.372255681521381 42.01194798409863 -1.3579723280683036 0 0 0
204 1 3.9412105857702215 43.796025100220454 0.4495270048737134 0 0 0
205 1 3.531222421011222 45.62615061050368 2.257026331742053 0 0 0
206 1 3.1403625833398507 47.430029666137834 4.064526032221441 0 0 0
207 1 2.7339392319116627 49.17661431575268 5.872025951342539 0 0 0
208 1 7.0070128352658685 38.94804069938076 -6.780471068571352 0 0 0
209 1 6.570654930242128 40.708509174493194 -4.972971643630912 0 0 0
210 1 6.130330014623027 42.47188660603836 -3.1654720456242846 0 0 0
211 1 5.688611652001526 44.23481088134272 -1.3579725164540346 0 0 0
212 1 5.2763588710473215 46.010839473492716 0.4495267800249426 0 0 0
213 1 4.886103758459058 47.80132684153204 2.257026360774201 0 0 0
214 1 4.47976234594735 49.590460093302106 4.064526153662472 0 0 0
215 1 4.03222733105504 51.38357867925418 5.872025756882531 0 0 0
216 1 8.325412127781078 41.14709587986098 -6.780471230392949 0 0 0
217 1 7.886553175006625 42.90860479438532 -4.972971776422074 0 0 0
218 1 7.454370690042481 44.66822715486227 -3.1654722580241224 0 0 0
219 1 7.034900466652246 46.43106099449812 -1.3579729172325021 0 0 0
220 1 6.623259084556111 48.209137918417575 0.4495267490797711 0 0 0
221 1 6.201640665215834 50.001421771155314 2.2570265317194353 0 0 0
222 1 5.768715572704082 51.78777486941535 4.064526011630498 0 0 0
223 1 5.347508461461601 53.558625678802066 5.872025420615816 0 0 0
224 1 9.646841380595816 43.342409804169414 -6.780471501076356 0 0 0
225 1 9.216838475711512 45.10075239591344 -4.9729720645192685 0 0 0
226 1 8.790515751342042 46.862888720457654 -3.165472537861289 0 0 0
227 1 8.364570501779141 48.63392175361627 -1.3579727228388694 0 0 0
228 1 7.9393851364255 50.41234241751135 0.4495270809152688 0 0 0
229 1 7.518727477045061 52.18957533693517 2.25702654865179 0 0 0
230 1 7.102645304707963 53.961464052153865 4.064525692908307 0 0 0
231 1 6.683438141146681 55.73305386758678 5.872025164509455 0 0 0
232 1 10.975278928110654 45.53519950270161 -6.780471693158496 0 0 0
233 1 10.544359410172206 47.29654641927613 -4.972972245106597 0 0 0
234 1 10.114732751061823 49.061741994874815 -3.165472501895263 0 0 0
235 1 9.689522091567198 50.83015549870647 -1.3579726997664319 0 0 0
236 1 9.269456592909918 52.60084473885296 0.44952666187503604 0 0 0
237 1 8.849662600563903 54.37336672228084 2.2570258540976713 0 0 0
238 1 8.424114353835193 56.147389001770314 4.064525444232481 0 0 0
239 1 7.993863212165877 57.91937058389049 5.872025326193088 0 0 0
240 1 12.299989065687186 47.72972125919937 -6.780472266079587 0 0 0
241 1 11.87004567358278 49.4908911916665 -4.972972388342978 0 0 0
242 1 11.443760246389886 51.254264748756434 -3.165472886225468 0 0 0
243 1 11.020069980556556 53.020891535181256 -1.3579734220533415 0 0 0
244 1 10.595975937668783 54.79083122509092 0.44952596480342216 0 0 0
245 1 10.170228446904602 56.56165185557301 2.2570257866516275 0 0 0
246 1 9.745015978690759 58.3300133025188 4.064525603920253 0 0 0
247 1 13.627065721758314 49.92162485971419 -6.780472704240333 0 0 0
248 1 13.198929809137582 51.68237325262481 -4.972973229782634 0 0 0
249 1 12.772129554735457 53.44584716367263 -3.1654736638739007 0 0 0
250 1 12.346078563189295 55.21171858308802 -1.3579742412468012 0 0 0
251 1 11.9211429464887 56.97838674032531 0.4495257741924641 0 0 0
252 1 11.497573576147104 58.744358706300424 2.2570256405164555 0 0 0
253 1 14.954875217878538 52.11256044515634 -6.780473392752456 0 0 0
254 1 14.526510847290098 53.87326224177634 -4.97297394618209 0 0 0
255 1 14.099681436643579 55.635545859774105 -3.165474332709776 0 0 0
256 1 13.674539090451376 57.398879650389425 -1.357974402423284 0 0 0
257 1 13.250368533236596 59.162823563624634 0.4495256297334416 0 0 0
258 1 16.282812192848098 54.30228317121669 -6.78047396039036 0 0 0
259 1 15.85535928319122 56.06192821482791 -4.972974532686676 0 0 0
260 1 15.429354656674121 57.8227357927774 -3.1654744976540012 0 0 0
261 1 17.612241474385627 56.49030580582876 -6.780474531577996 0 0 0
262 1 17.185408452938887 58.24905132284041 -4.972974618285627 0 0 0
263 1 18.942612983056904 58.67714787166019 -6.780474821899838 0 0 0
264 2 -0.32078254854096144 22.62061557299807 -4.9729691632193305 0 0 0
265 2 0.7894719082562318 -35.385361852174455 -6.780473963815944 0 0 1
266 2 0.8467147184539812 27.914171930242695 -3.1654696477102435 0 0 0
267 2 0.855614861687215 26.08659053076716 -1.3579688775332512 0 0 0
268 2 -0.3376898865349176 30.063704178363814 0.44952814295329774 0 0 0
269 1 2.734804741226199 26.45814627057036 -6.780467694579859 0 0 0
270 1 2.3770519694011654 28.345573392773666 -4.972968703549231 0 0 0
271 1 1.9962855795700278 30.13873743072366 -3.165468451341739 0 0 0
272 2 0.8017834950173466 31.686410888943662 -1.3579709220777512 0 0 0
273 2 0.8266120224688791 35.37270474098579 2.2570276213785503 0 0 0
274 2 0.8412288917692479 33.54327010321267 4.064528484730207 0 0 0
275 2 -0.36900710903661604 37.49839042439185 5.872026230200748 0 0 0
276 1 4.072546852430122 28.74311506021686 -6.780468178532005 0 0 0
277 1 3.6020490589761778 30.592083199622714 -4.972968447275546 0 0 0
278 1 3.072541897113709 32.30416093014741 -3.1654691407701603 0 0 0
279 1 2.7178142045287785 33.933238957365354 -1.3579699967475654 0 0 0
280 1 2.3440851126217837 35.83704898680025 0.4495286187260975 0 0 0
281 1 1.9604464828522197 37.63285769765232 2.257028565599048 0 0 0
282 1 0.7777590094986806 39.16320021418573 4.06452712606046 0 0 0
283 1 0.7950489816464597 41.05832657147588 5.872026419579712 0 0 0
284 1 5.3258266449239215 30.992170685216784 -6.780468399803865 0 0 0
285 1 4.91439887049151 32.74120910838979 -4.972968927542128 0 0 0
286 1 4.462595866825566 34.47716364249144 -3.165469867773736 0 0 0
287 1 4.032712618121948 36.23863570288824 -1.3579710886665908 0 0 0
288 1 3.547535791538948 38.103558247411165 0.4495286572091916 0 0 0
289 1 2.9949048651204606 39.83829443017019 2.257027746042858 0 0 0
290 1 2.561363653832032 41.51908685064907 4.06452715132687 0 0 0
291 1 2.2665122395864756 43.36041702244676 5.872026439879129 0 0 0
292 1 6.655339320681406 33.190209208943465 -6.780468884157735 0 0 0
293 1 6.205460766542771 34.953691599012 -4.972969746368917 0 0 0
294 1 5.724769114714974 36.73180444669875 -3.1654706373386117 0 0 0
295 1 5.253198214370002 38.51189002120727 -1.3579712541785864 0 0 0
296 1 4.806177949023976 40.28056747050905 0.44952824304525685 0 0 0
297 1 4.372255678297648 42.01194798729829 2.257027672325754 0 0 0
298 1 3.9412105967716258 43.7960251040572 4.064526990819555 0 0 0
299 1 3.5312224167855106 45.6261506074033 5.872026329039893 0 0 0
300 1 7.929267276342955 35.41678245794565 -6.780469717572412 0 0 0
301 1 7.461819726362933 37.18516201740851 -4.972970390656135 0 0 0
302 1 7.007012836474331 38.94804069952041 -3.1654710658376857 0 0 0
303 1 6.570654930428233 40.70850917365198 -1.3579716439926295 0 0 0
304 1 6.130330014623112 42.471886605467624 0.4495279638600295 0 0 0
305 1 5.688611657859937 44.23481087718516 2.2570274767898337 0 0 0
306 1 5.276358867295244 46.01083947720411 4.0645267778656615 0 0 0
307 1 4.886103768835028 47.80132684334229 5.872026360137337 0 0 0
308 1 9.212654430778912 37.62836322761523 -6.780470080829094 0 0 0
309 1 8.766406836693875 39.387079041540865 -4.972970765213487 0 0 0
310 1 8.325412127761524 41.147095881627415 -3.1654712346547145 0 0 0
311 1 7.886553170800099 42.90860479599419 -1.3579717743698916 0 0 0
312 1 7.454370693207537 44.668227155245425 0.44952774340367674 0 0 0
313 1 7.034900472176361 46.43106099217672 2.2570270811739843 0 0 0
314 1 6.623259085103882 48.209137915623295 4.064526752144899 0 0 0
315 1 6.201640666746343 50.001421767978194 5.872026531671682 0 0 0
316 1 10.523282205393159 39.826509752523286 -6.7804706843927125 0 0 0
317 1 10.082683200458789 41.58445480052733 -4.972971233949258 0 0 0
318 1 9.64684137948042 43.34240980443911 -3.16547149811669 0 0 0
319 1 9.216838475096253 45.10075239411673 -1.3579720660893178 0 0 0
320 1 8.790515750836235 46.8628887206139 0.4495274609831205 0 0 0
321 1 8.364570504282682 48.63392175299489 2.257027278582079 0 0 0
322 1 7.939385136983674 50.41234241770439 4.064527083870676 0 0 0
323 1 7.518727475130376 52.189575336721994 5.872026549382936 0 0 0
324 1 11.841959277404214 42.02074999764816 -6.780470996797645 0 0 0
325 1 11.407157394469792 43.77715751800073 -4.9729713553544315 0 0 0
326 1 10.975278928804286 45.53519950240001 -3.1654716915726646 0 0 0
327 1 10.544359412968078 47.296546418258366 -1.357972247423203 0 0 0
328 1 10.114732749090848 49.061741993490195 0.44952750030486 0 0 0
329 1 9.689522086747616 50.830155499143494 2.257027300164899 0 0 0
330 1 9.269456592859797 52.600844740110325 4.064526666806108 0 0 0
331 1 8.849662599064061 54.37336672073459 5.872025855582709 0 0 0
332 1 13.166104322065863 44.21292538219617 -6.780471495828607 0 0 0
333 1 12.732405347709445 45.97036216091171 -4.972971703780697 0 0 0
334 1 12.299989067486507 47.72972125753618 -3.1654722670229014 0 0 0
335 1 11.87004567531379 49.49089118814481 -1.3579723875426102 0 0 0
336 1 11.443760247279513 51.25426475007327 0.4495271128277876 0 0 0
337 1 11.020069980755082 53.02089153653319 2.2570265792016233 0 0 0
338 1 10.595975938706175 54.7908312254606 4.064525963584576 0 0 0
339 1 10.170228451296055 56.561651860272 5.8720257869481784 0 0 0
340 1 14.490026339986017 46.40538107235353 -6.780471933389303 0 0 0
341 1 14.057397008013368 48.16286083060373 -4.972972392431025 0 0 0
342 1 13.627065720608883 49.92162485802418 -3.1654727041753348 0 0 0
343 1 13.198929810723925 51.68237325076367 -1.3579732303388714 0 0 0
344 1 12.772129554416267 53.445847164960135 0.4495263345654247 0 0 0
345 1 12.346078562699844 55.211718585815824 2.2570257593503724 0 0 0
346 1 11.921142946176303 56.9783867410197 4.064525776853283 0 0 0
347 1 11.497573574529255 58.744358707352795 5.872025640426755 0 0 0
348 1 15.815591954317526 48.596438604331375 -6.780472606650825 0 0 0
349 1 15.384519552830682 50.353696883381666 -4.972972889388558 0 0 0
350 1 14.954875217466565 52.11256044661925 -3.1654733946218596 0 0 0
351 1 14.526510847030266 53.87326224223472 -1.3579739451212858 0 0 0
352 1 14.099681436896589 55.635545860794885 0.4495256708302317 0 0 0
353 1 13.674539089084902 57.3988796546172 2.2570255965274937 0 0 0
354 1 13.250368531839001 59.1628235612662 4.064525630935544 0 0 0
355 1 17.14234539098483 50.78659961280814 -6.78047318353486 0 0 0
356 1 16.711874734565868 52.54383384733239 -4.972973566473952 0 0 0
357 1 16.28281219431861 54.30228317179574 -3.165473958183591 0 0 0
358 1 15.855359282580807 56.061928213863645 -1.3579745340988785 0 0 0
359 1 15.429354657861381 57.82273579274851 0.449525504664314 0 0 0
360 1 18.46981657707272 52.97585634001799 -6.780473785877592 0 0 0
361 1 18.0403255810066 54.732591752970016 -4.972974238710054 0 0 0
362 1 17.612241475930176 56.4903058057265 -3.1654745251681438 0 0 0
363 1 17.18540845154078 58.24905132583188 -1.3579746204827823 0 0 0
364 1 19.798586517152685 55.16394157134213 -6.780474496347205 0 0 0
365 1 19.36999389909232 56.920144173461246 -4.972974802114137 0 0 0
366 1 18.94261298282572 58.67714787042873 -3.1654748219854483 0 0 0
367 1 21.128435085392255 57.35108927524251 -6.780475305854127 0 0 0
368 1 20.700704525428065 59.10666744002042 -4.972975256533702 0 0 0
369 2 0.8584229742739495 20.46050668152612 -4.972966828921449 0 0 0
370 2 0.8651751679056616 18.63313745311101 -3.1654654344169977 0 0 0
371 2 -0.32078255143215983 22.620615572247466 -1.3579691632294975 0 0 0
372 1 2.39299608009631 20.87946273022184 -6.780465124631707 0 0 0
373 1 2.0139711900208397 22.67236131981243 -4.972965725212227 0 0 0
374 2 0.826844708083982 24.232022470087706 -3.1654682119533817 0 0 0
375 2 0.8467147184039732 27.914171924794964 0.44953035253622864 0 0 0
376 2 0.8556148624993511 26.086590528142317 2.257031122785203 0 0 0
377 2 -0.3376898845810956 30.063704170782067 4.064528141681026 0 0 0
378 1 3.620682778568863 23.12161274281481 -6.780465736435494 0 0 0
379 1 3.0893551030823403 24.833809224257685 -4.972967026471202 0 0 0
380 1 2.7348047389805714 26.458146271371525 -3.1654676944154936 0 0 0
381 1 2.3770519699361756 28.345573392875316 -1.3579687056862775 0 0 0
382 1 1.9962855731451015 30.138737424659276 0.44953154750730806 0 0 0
383 2 0.8017834908165042 31.686410885726154 2.2570290754751565 0 0 0
384 2 0.8266118192524488 35.37270483294801 5.87202763096338 0 0 0
385 2 0.8412288957763536 33.54327010471555 -6.780471497246536 0 0 1
386 1 4.937432708070929 25.262981471559577 -6.7804664880482735 0 0 0
387 1 4.494721953429391 26.989622404092067 -4.97296730994088 0 0 0
388 1 4.0725468485118625 28.743115064149684 -3.1654681790639088 0 0 0
389 1 3.6020490580748827 30.592083210463535 -1.3579684577734317 0 0 0
390 1 3.07254189836992 32.30416093793624 0.4495308380435011 0 0 0
391 1 2.7178140988683737 33.93323905063972 2.2570299966339347 0 0 0
392 1 2.3440851191426333 35.83704898879221 4.064528522313482 0 0 0
393 1 1.960446293525976 37.63285767610653 5.8720285683533495 0 0 0
394 1 6.247126166251164 27.460928258562028 -6.780467168661219 0 0 0
395 1 5.778802018519471 29.227477615637305 -4.972967756875327 0 0 0
396 1 5.325826640615915 30.992170687450233 -3.1654684104404773 0 0 0
397 1 4.914398842409625 32.741209127790704 -1.357968922763874 0 0 0
398 1 4.462595866826902 34.4771636405813 0.44953011063389064 0 0 0
399 1 4.032712564376851 36.23863572171842 2.257028914997852 0 0 0
400 1 3.547535789380987 38.1035582398029 4.064528592351322 0 0 0
401 1 2.9949048598188455 39.8382944769511 5.872027737703856 0 0 0
402 1 7.527005859239679 29.677762012228932 -6.78046757089883 0 0 0
403 1 7.089232738229185 31.430023379622604 -4.972968357027616 0 0 0
404 1 6.655339320783028 33.190209211145365 -3.165468895048937 0 0 0
405 1 6.205460748173564 34.95369161207187 -1.3579697487074858 0 0 0
406 1 5.72476911660884 36.73180445000971 0.44952934984039455 0 0 0
407 1 5.253198189683445 38.511890021694335 2.257028747309629 0 0 0
408 1 4.806177950985344 40.28056747094822 4.06452824554627 0 0 0
409 1 4.372255682059958 42.01194798391514 5.872027672549478 0 0 0
410 1 8.837950403654872 31.88174520071184 -6.780468120345998 0 0 0
411 1 8.390160817190377 33.64511833654608 -4.972968820403555 0 0 0
412 1 7.92926727849418 35.41678245818222 -3.1654697231100752 0 0 0
413 1 7.461819725729072 37.18516201821611 -1.3579703909186382 0 0 0
414 1 7.007012835429478 38.948040699328054 0.44952893147788686 0 0 0
415 1 6.570654930647763 40.708509174384496 2.2570283563696085 0 0 0
416 1 6.130330015039533 42.4718866059112 4.064527954513928 0 0 0
417 1 5.688611652058228 44.2348108813247 5.8720274836003865 0 0 0
418 1 10.125092204385638 34.09925838441348 -6.780468596985747 0 0 0
419 1 9.667127643582333 35.8653604490891 -4.972969466942897 0 0 0
420 1 9.212654432963433 37.62836322882357 -3.1654700839268433 0 0 0
421 1 8.76640682968359 39.38707904402164 -1.3579707663946994 0 0 0
422 1 8.325412127656634 41.147095879909536 0.4495287696285987 0 0 0
423 1 7.886553174957598 42.90860479432667 2.257028223553255 0 0 0
424 1 7.454370690073091 44.668227154814495 4.064527742021126 0 0 0
425 1 7.034900466624336 46.43106099443715 5.8720270828601695 0 0 0
426 1 11.414928144243063 36.308807676791496 -6.78046935687226 0 0 0
427 1 10.967057742071049 38.06830040139473 -4.972969985529324 0 0 0
428 1 10.523282204817065 39.8265097507031 -3.1654706873062413 0 0 0
429 1 10.082683196720453 41.5844547984424 -1.3579712327621 0 0 0
430 1 9.646841380580668 43.34240980418689 0.4495284989173684 0 0 0
431 1 9.216838475711981 45.10075239593163 2.2570279354787357 0 0 0
432 1 8.790515751355017 46.86288872043796 4.064527462094861 0 0 0
433 1 8.36457050178359 48.633921753629686 5.87202727721058 0 0 0
434 1 12.722433087676507 38.50750559176769 -6.780469951327799 0 0 0
435 1 12.280571719873336 40.26440310875285 -4.972970520576666 0 0 0
436 1 11.841959277070998 42.02074999641507 -3.165470991938616 0 0 0
437 1 11.40715739289081 43.77715751981486 -1.357971356775683 0 0 0
438 1 10.975278928108281 45.535199502702504 0.44952830684760564 0 0 0
439 1 10.544359410165825 47.29654641927882 2.2570277548942035 0 0 0
440 1 10.114732751061197 49.0617419948777 4.064527498099543 0 0 0