#LAMMPS data file
29248 atoms
2 atom types
-125.2250000000 125.2250000000 xlo xhi
-59.6201706000 59.6201706000 ylo yhi
-7.2300000000 7.2300000000 zlo zhi
0.0 0.0 0.0 xy xz yz

Atoms # atomic

1 1 0.664823 58.098982 -6.776501
2 1 0.288255 52.441563 -6.776502
3 1 1.349034 54.600522 -6.776503
4 1 0.994940 56.223928 -4.969002
5 1 0.664823 58.098982 -3.161501
6 1 2.771799 56.728956 -6.776504
7 1 2.359634 58.480834 -4.969003
8 1 4.066939 58.949976 -6.776505
9 1 0.990623 48.770536 -6.776502
10 1 0.661022 50.645775 -4.969000
11 1 0.288255 52.441563 -3.161502
12 1 2.355575 51.027191 -6.776503
13 1 1.890183 52.879383 -4.969003
14 1 1.349034 54.600522 -3.161503
15 1 0.994940 56.223928 -1.354002
16 1 0.664823 58.098982 0.453499
17 1 3.611207 53.262222 -6.776505
18 1 3.202683 55.008343 -4.969005
19 1 2.771799 56.728956 -3.161504
20 1 2.359634 58.480834 -1.354003
21 1 4.962344 55.430436 -6.776506
22 1 4.529745 57.184283 -4.969006
23 1 4.066939 58.949976 -3.161505
24 1 6.267040 57.627528 -6.776507
25 1 5.818479 59.384508 -4.969007
26 1 0.657201 43.191443 -6.776500
27 1 0.284735 44.987608 -4.969002
28 1 1.886179 45.424942 -6.776503
29 1 1.344591 47.146793 -4.969002
30 1 0.990623 48.770536 -3.161502
31 1 0.661022 50.645774 -1.354000
32 1 0.288255 52.441563 0.453498
33 1 3.198061 47.553841 -6.776504
34 1 2.767460 49.274888 -4.969004
35 1 2.355575 51.027191 -3.161503
36 1 1.890183 52.879383 -1.354003
37 1 1.349034 54.600522 0.453497
38 1 0.994940 56.223928 2.260998
39 1 0.664823 58.098982 4.068499
40 1 4.525121 49.729614 -6.776506
41 1 4.062517 51.495919 -4.969005
42 1 3.611207 53.262222 -3.161505
43 1 3.202683 55.008343 -1.354005
44 1 2.771799 56.728956 0.453496
45 1 2.359634 58.480834 2.260997
46 1 5.813608 51.929958 -6.776507
47 1 5.382337 53.678940 -4.969007
48 1 4.962344 55.430436 -3.161506
49 1 4.529745 57.184283 -1.354006
50 1 4.066939 58.949976 0.453495
51 1 7.143523 54.110039 -6.776508
52 1 6.710796 55.865460 -4.969008
53 1 6.267040 57.627528 -3.161507
54 1 5.818479 59.384508 -1.354007
55 1 8.457157 56.302572 -6.776510
56 1 8.016092 58.060134 -4.969009
57 1 9.771148 58.491497 -6.776511
58 1 0.281145 37.532103 -6.776502
59 1 1.339272 39.691667 -6.776502
60 1 0.985564 41.316020 -4.969002
61 1 0.657201 43.191443 -3.161500
62 1 0.284735 44.987608 -1.354002
63 1 2.762564 41.818869 -6.776503
64 1 2.351313 43.571901 -4.969002
65 1 1.886179 45.424942 -3.161503
66 1 1.344591 47.146793 -1.354002
67 1 0.990623 48.770536 0.453498
68 1 0.661022 50.645774 2.261000
69 1 0.288255 52.441563 4.068498
70 1 4.057651 44.039728 -6.776504
71 1 3.606529 45.806998 -4.969004
72 1 3.198061 47.553841 -3.161504
73 1 2.767460 49.274888 -1.354004
74 1 2.355575 51.027191 0.453497
75 1 1.890183 52.879383 2.260997
76 1 1.349034 54.600522 4.068497
77 1 0.994940 56.223928 5.875998
78 1 5.377077 46.222783 -6.776506
79 1 4.957430 47.975104 -4.969006
80 1 4.525121 49.729614 -3.161506
81 1 4.062517 51.495919 -1.354005
82 1 3.611207 53.262222 0.453495
83 1 3.202683 55.008343 2.260995
84 1 2.771799 56.728956 4.068496
85 1 2.359634 58.480834 5.875997
86 1 6.705394 48.409312 -6.776508
87 1 6.261962 50.172236 -4.969007
88 1 5.813608 51.929958 -3.161507
89 1 5.382337 53.678940 -1.354007
90 1 4.962344 55.430436 0.453494
91 1 4.529745 57.184283 2.260994
92 1 4.066939 58.949976 4.068495
93 1 8.010449 50.604175 -6.776509
94 1 7.574436 52.358501 -4.969009
95 1 7.143523 54.110039 -3.161508
96 1 6.710796 55.865460 -1.354008
97 1 6.267040 57.627528 0.453493
98 1 5.818479 59.384508 2.260993
99 1 9.330916 52.789609 -6.776511
100 1 8.896238 54.544945 -4.969010
101 1 8.457157 56.302572 -3.161510
102 1 8.016092 58.060134 -1.354009
103 1 10.646555 54.979693 -6.776512
104 1 10.208068 56.736383 -4.969011
105 1 9.771148 58.491497 -3.161511
106 1 11.961455 57.169065 -6.776513
107 1 11.525798 58.924064 -4.969012
108 1 13.279007 59.357584 -6.776514
109 1 0.978814 33.859429 -6.776501
110 1 0.652943 35.735192 -4.969000
111 1 0.281145 37.532103 -3.161502
112 1 2.346242 36.113763 -6.776502
113 1 1.881684 37.968425 -4.969003
114 1 1.339272 39.691667 -3.161502
115 1 0.985564 41.316020 -1.354002
116 1 0.657201 43.191443 0.453500
117 1 0.284735 44.987608 2.260998
118 1 3.600791 38.348936 -6.776504
119 1 3.192490 40.097106 -4.969004
120 1 2.762564 41.818869 -3.161503
121 1 2.351313 43.571901 -1.354002
122 1 1.886179 45.424942 0.453497
123 1 1.344591 47.146793 2.260998
124 1 0.990623 48.770536 4.068498
125 1 0.661022 50.645774 5.876000
126 1 4.951460 40.516708 -6.776506
127 1 4.519807 42.272367 -4.969005
128 1 4.057651 44.039728 -3.161504
129 1 3.606529 45.806998 -1.354004
130 1 3.198061 47.553841 0.453496
131 1 2.767460 49.274888 2.260996
132 1 2.355575 51.027191 4.068497
133 1 1.890183 52.879383 5.875997
134 1 6.255931 42.713766 -6.776507
135 1 5.808029 44.472750 -4.969006
136 1 5.377077 46.222783 -3.161506
137 1 4.957430 47.975104 -1.354006
138 1 4.525121 49.729614 0.453494
139 1 4.062517 51.495919 2.260995
140 1 3.611207 53.262222 4.068495
141 1 3.202683 55.008343 5.875995
142 1 7.568118 44.900194 -6.776508
143 1 7.137694 46.652905 -4.969008
144 1 6.705394 48.409312 -3.161508
145 1 6.261962 50.172236 -1.354007
146 1 5.813608 51.929958 0.453493
147 1 5.382337 53.678940 2.260993
148 1 4.962344 55.430436 4.068494
149 1 4.529745 57.184283 5.875994
150 1 8.889746 47.086855 -6.776510
151 1 8.451148 48.845620 -4.969010
152 1 8.010449 50.604175 -3.161509
153 1 7.574436 52.358501 -1.354009
154 1 7.143523 54.110039 0.453492
155 1 6.710796 55.865460 2.260992
156 1 6.267040 57.627528 4.068493
157 1 5.818479 59.384508 5.875993
158 1 10.201374 49.278640 -6.776511
159 1 9.764876 51.034856 -4.969011
160 1 9.330916 52.789609 -3.161511
161 1 8.896238 54.544945 -1.354010
162 1 8.457157 56.302572 0.453490
163 1 8.016092 58.060134 2.260991
164 1 11.518857 51.466759 -6.776513
165 1 11.083625 53.222871 -4.969012
166 1 10.646555 54.979693 -3.161512
167 1 10.208068 56.736383 -1.354011
168 1 9.771148 58.491497 0.453489
169 1 12.835176 53.656501 -6.776514
170 1 12.398168 55.413186 -4.969014
171 1 11.961455 57.169065 -3.161513
172 1 11.525798 58.924064 -1.354012
173 1 14.150850 55.846219 -6.776516
174 1 13.714913 57.602029 -4.969015
175 1 13.279007 59.357584 -3.161514
176 1 15.467848 58.035445 -6.776517
177 1 0.647482 28.274857 -6.776501
178 1 0.277152 30.073394 -4.969002
179 1 1.875871 30.507708 -6.776503
180 1 1.331927 32.233792 -4.969002
181 1 0.978814 33.859429 -3.161501
182 1 0.652943 35.735192 -1.354000
183 1 0.281145 37.532103 0.453498
184 1 3.184651 32.636086 -6.776504
185 1 2.756161 34.359299 -4.969003
186 1 2.346242 36.113763 -3.161502
187 1 1.881684 37.968425 -1.354003
188 1 1.339272 39.691667 0.453498
189 1 0.985564 41.316020 2.260998
190 1 0.657201 43.191443 4.068500
191 1 0.284735 44.987608 5.875998
192 1 4.512653 34.810445 -6.776505
193 1 4.051478 36.579839 -4.969005
194 1 3.600791 38.348936 -3.161504
195 1 3.192490 40.097106 -1.354004
196 1 2.762564 41.818869 0.453497
197 1 2.351313 43.571901 2.260998
198 1 1.886179 45.424942 4.068497
199 1 1.344591 47.146793 5.875998
200 1 5.800584 37.010954 -6.776507
201 1 5.370344 38.762924 -4.969006
202 1 4.951460 40.516708 -3.161506
203 1 4.519807 42.272367 -1.354005
204 1 4.057651 44.039728 0.453496
205 1 3.606529 45.806998 2.260996
206 1 3.198061 47.553841 4.068496
207 1 2.767460 49.274888 5.875996
208 1 7.130052 39.191234 -6.776508
209 1 6.698666 40.949368 -4.969008
210 1 6.255931 42.713766 -3.161507
211 1 5.808029 44.472750 -1.354006
212 1 5.377077 46.222783 0.453494
213 1 4.957430 47.975104 2.260994
214 1 4.525121 49.729614 4.068494
215 1 4.062517 51.495919 5.875995
216 1 8.443484 41.384224 -6.776509
217 1 8.003554 43.144452 -4.969009
218 1 7.568118 44.900194 -3.161508
219 1 7.137694 46.652905 -1.354008
220 1 6.705394 48.409312 0.453492
221 1 6.261962 50.172236 2.260993
222 1 5.813608 51.929958 4.068493
223 1 5.382337 53.678940 5.875993
224 1 9.757072 43.573913 -6.776511
225 1 9.323828 45.330205 -4.969010
226 1 8.889746 47.086855 -3.161510
227 1 8.451148 48.845620 -1.354010
228 1 8.010449 50.604175 0.453491
229 1 7.574436 52.358501 2.260991
230 1 7.143523 54.110039 4.068492
231 1 6.710796 55.865460 5.875992
232 1 11.075721 45.762447 -6.776512
233 1 10.639322 47.520695 -4.969012
234 1 10.201374 49.278640 -3.161511
235 1 9.764876 51.034856 -1.354011
236 1 9.330916 52.789609 0.453489
237 1 8.896238 54.544945 2.260990
238 1 8.457157 56.302572 4.068490
239 1 8.016092 58.060134 5.875991
240 1 12.390153 47.953364 -6.776514
241 1 11.954032 49.710573 -4.969013
242 1 11.518857 51.466759 -3.161513
243 1 11.083625 53.222871 -1.354012
244 1 10.646555 54.979693 0.453488
245 1 10.208068 56.736383 2.260989
246 1 9.771148 58.491497 4.068489
247 1 13.706748 50.142875 -6.776515
248 1 13.271367 51.899669 -4.969015
249 1 12.835176 53.656501 -3.161514
250 1 12.398168 55.413186 -1.354014
251 1 11.961455 57.169065 0.453487
252 1 11.525798 58.924064 2.260988
253 1 15.023291 52.332910 -6.776516
254 1 14.587114 54.089815 -4.969016
255 1 14.150850 55.846219 -3.161515
256 1 13.714913 57.602029 -1.354015
257 1 13.279007 59.357584 0.453486
258 1 16.339519 54.523039 -6.776518
259 1 15.903706 56.279405 -4.969017
260 1 15.467848 58.035445 -3.161517
261 1 17.656429 56.712894 -6.776519
262 1 17.220543 58.469091 -4.969019
263 1 18.973303 58.902859 -6.776521
264 1 0.272519 22.606552 -6.776503
265 1 1.319993 24.769432 -6.776503
266 1 0.968277 26.398248 -4.969002
267 1 0.647482 28.274857 -3.161501
268 1 0.277152 30.073394 -1.354002
269 1 2.746155 26.892015 -6.776504
270 1 2.339150 28.649680 -4.969003
271 1 1.875871 30.507708 -3.161503
272 1 1.331927 32.233792 -1.354002
273 1 0.978814 33.859429 0.453499
274 1 0.652943 35.735192 2.261000
275 1 0.281145 37.532103 4.068498
276 1 4.042134 29.112308 -6.776505
277 1 3.592511 30.885219 -4.969004
278 1 3.184651 32.636086 -3.161504
279 1 2.756161 34.359299 -1.354003
280 1 2.346242 36.113763 0.453498
281 1 1.881684 37.968425 2.260997
282 1 1.339272 39.691667 4.068498
283 1 0.985564 41.316020 5.875998
284 1 5.360107 31.295796 -6.776506
285 1 4.942890 33.052533 -4.969006
286 1 4.512653 34.810445 -3.161505
287 1 4.051478 36.579839 -1.354005
288 1 3.600791 38.348936 0.453496
289 1 3.192490 40.097106 2.260996
290 1 2.762564 41.818869 4.068497
291 1 2.351313 43.571901 5.875998
292 1 6.688724 33.482373 -6.776508
293 1 6.247496 35.249598 -4.969007
294 1 5.800584 37.010954 -3.161507
295 1 5.370344 38.762924 -1.354006
296 1 4.951460 40.516708 0.453494
297 1 4.519807 42.272367 2.260995
298 1 4.057651 44.039728 4.068496
299 1 3.606529 45.806998 5.875996
300 1 7.993630 35.678101 -6.776509
301 1 7.559430 37.436425 -4.969008
302 1 7.130052 39.191234 -3.161508
303 1 6.698666 40.949368 -1.354008
304 1 6.255931 42.713766 0.453493
305 1 5.808029 44.472750 2.260994
306 1 5.377077 46.222783 4.068494
307 1 4.957430 47.975104 5.875994
308 1 9.313921 37.864593 -6.776510
309 1 8.881076 39.623515 -4.969010
310 1 8.443484 41.384224 -3.161509
311 1 8.003554 43.144452 -1.354009
312 1 7.568118 44.900194 0.453492
313 1 7.137694 46.652905 2.260992
314 1 6.705394 48.409312 4.068492
315 1 6.261962 50.172236 5.875993
316 1 10.629556 40.055902 -6.776512
317 1 10.192696 41.815905 -4.969011
318 1 9.757072 43.573913 -3.161511
319 1 9.323828 45.330205 -1.354010
320 1 8.889746 47.086855 0.453490
321 1 8.451148 48.845620 2.260990
322 1 8.010449 50.604175 4.068491
323 1 7.574436 52.358501 5.875991
324 1 11.944352 42.246688 -6.776513
325 1 11.510141 44.004712 -4.969013
326 1 11.075721 45.762447 -3.161512
327 1 10.639322 47.520695 -1.354012
328 1 10.201374 49.278640 0.453489
329 1 9.764876 51.034856 2.260989
330 1 9.330916 52.789609 4.068489
331 1 8.896238 54.544945 5.875990
332 1 13.261769 44.436715 -6.776515
333 1 12.826439 46.195193 -4.969014
334 1 12.390153 47.953364 -3.161514
335 1 11.954032 49.710573 -1.354013
336 1 11.518857 51.466759 0.453487
337 1 11.083625 53.222871 2.260988
338 1 10.646555 54.979693 4.068488
339 1 10.208068 56.736383 5.875989
340 1 14.577573 46.627815 -6.776516
341 1 14.142054 48.385702 -4.969015
342 1 13.706748 50.142875 -3.161515
343 1 13.271367 51.899669 -1.354015
344 1 12.835176 53.656501 0.453486
345 1 12.398168 55.413186 2.260986
346 1 11.961455 57.169065 4.068487
347 1 11.525798 58.924064 5.875988
348 1 15.894170 48.818371 -6.776517
349 1 15.458952 50.575753 -4.969017
350 1 15.023291 52.332910 -3.161516
351 1 14.587114 54.089815 -1.354016
352 1 14.150850 55.846219 0.453484
353 1 13.714913 57.602029 2.260985
354 1 13.279007 59.357584 4.068486
355 1 17.210959 51.009029 -6.776519
356 1 16.775339 52.766225 -4.969018
357 1 16.339519 54.523039 -3.161518
358 1 15.903706 56.279405 -1.354017
359 1 15.467848 58.035445 0.453483
360 1 18.527651 53.199710 -6.776520
361 1 18.092094 54.956460 -4.969020
362 1 17.656429 56.712894 -3.161519
363 1 17.220543 58.469091 -1.354019
364 1 19.844719 55.390197 -6.776522
365 1 19.409111 57.146647 -4.969021
366 1 18.973303 58.902859 -3.161521
367 1 21.161894 57.580644 -6.776523
368 1 20.726219 59.336786 -4.969023
369 1 0.951449 18.929186 -6.776502
370 1 0.639761 20.804034 -4.969001
371 1 0.272519 22.606552 -3.161503
372 1 2.328358 21.172305 -6.776503
373 1 1.867252 23.037036 -4.969003
374 1 1.319993 24.769432 -3.161503
375 1 0.968277 26.398248 -1.354002
376 1 0.647482 28.274857 0.453499
377 1 0.277152 30.073394 2.260998
378 1 3.578506 23.408580 -6.776505
379 1 3.171530 25.165459 -4.969005
380 1 2.746155 26.892015 -3.161504
381 1 2.339150 28.649680 -1.354003
382 1 1.875871 30.507708 0.453497
383 1 1.331927 32.233792 2.260998
384 1 0.978814 33.859429 4.068499
385 1 0.652943 35.735192 5.876000
386 1 4.928071 25.575580 -6.776506
387 1 4.501050 27.338542 -4.969006
388 1 4.042134 29.112308 -3.161505
389 1 3.592511 30.885219 -1.354004
390 1 3.184651 32.636086 0.453496
391 1 2.756161 34.359299 2.260997
392 1 2.346242 36.113763 4.068498
393 1 1.881684 37.968425 5.875997
394 1 6.233262 27.773456 -6.776507
395 1 5.788694 29.539834 -4.969007
396 1 5.360107 31.295796 -3.161506
397 1 4.942890 33.052533 -1.354006
398 1 4.512653 34.810445 0.453495
399 1 4.051478 36.579839 2.260995
400 1 3.600791 38.348936 4.068496
401 1 3.192490 40.097106 5.875996
402 1 7.545166 29.961851 -6.776509
403 1 7.118121 31.720853 -4.969008
404 1 6.688724 33.482373 -3.161508
405 1 6.247496 35.249598 -1.354007
406 1 5.800584 37.010954 0.453493
407 1 5.370344 38.762924 2.260994
408 1 4.951460 40.516708 4.068494
409 1 4.519807 42.272367 5.875995
410 1 8.867378 32.150452 -6.776510
411 1 8.431923 33.914783 -4.969009
412 1 7.993630 35.678101 -3.161509
413 1 7.559430 37.436425 -1.354008
414 1 7.130052 39.191234 0.453492
415 1 6.698666 40.949368 2.260992
416 1 6.255931 42.713766 4.068493
417 1 5.808029 44.472750 5.875994
418 1 10.179539 34.344508 -6.776511
419 1 9.745692 36.105626 -4.969011
420 1 9.313921 37.864593 -3.161510
421 1 8.881076 39.623515 -1.354010
422 1 8.443484 41.384224 0.453491
423 1 8.003554 43.144452 2.260991
424 1 7.568118 44.900194 4.068492
425 1 7.137694 46.652905 5.875992
426 1 11.497467 36.534952 -6.776512
427 1 11.064623 38.295314 -4.969012
428 1 10.629556 40.055902 -3.161512
429 1 10.192696 41.815905 -1.354011
430 1 9.757072 43.573913 0.453489
431 1 9.323828 45.330205 2.260990
432 1 8.889746 47.086855 4.068490
433 1 8.451148 48.845620 5.875990
434 1 12.814266 38.726997 -6.776514
435 1 12.379327 40.487421 -4.969014
436 1 11.944352 42.246688 -3.161513
437 1 11.510141 44.004712 -1.354013
438 1 11.075721 45.762447 0.453488
439 1 10.639322 47.520695 2.260988
440 1 10.201374 49.278640 4.068489
441 1 9.764876 51.034856 5.875989
442 1 14.130305 40.919012 -6.776516
443 1 13.696145 42.678118 -4.969015
444 1 13.261769 44.436715 -3.161515
445 1 12.826439 46.195193 -1.354014
446 1 12.390153 47.953364 0.453486
447 1 11.954032 49.710573 2.260987
448 1 11.518857 51.466759 4.068487
449 1 11.083625 53.222871 5.875988
450 1 15.447565 43.110490 -6.776517
451 1 15.012883 44.869317 -4.969016
452 1 14.577573 46.627815 -3.161516
453 1 14.142054 48.385702 -1.354015
454 1 13.706748 50.142875 0.453485
455 1 13.271367 51.899669 2.260985
456 1 12.835176 53.656501 4.068486
457 1 12.398168 55.413186 5.875986
458 1 16.764243 45.302316 -6.776518
459 1 16.329246 47.060588 -4.969018
460 1 15.894170 48.818371 -3.161517
461 1 15.458952 50.575753 -1.354017
462 1 15.023291 52.332910 0.453484
463 1 14.587114 54.089815 2.260984
464 1 14.150850 55.846219 4.068485
465 1 13.714913 57.602029 5.875985
466 1 18.081205 47.493842 -6.776520
467 1 17.646226 49.251562 -4.969019
468 1 17.210959 51.009029 -3.161519
469 1 16.775339 52.766225 -1.354018
470 1 16.339519 54.523039 0.453482
471 1 15.903706 56.279405 2.260983
472 1 15.467848 58.035445 4.068483
473 1 19.398344 49.685265 -6.776521
474 1 18.963097 51.442625 -4.969021
475 1 18.527651 53.199710 -3.161520
476 1 18.092094 54.956460 -1.354020
477 1 17.656429 56.712894 0.453481
478 1 17.220543 58.469091 2.260981
479 1 20.715482 51.876596 -6.776523
480 1 20.280160 53.633516 -4.969022
481 1 19.844719 55.390197 -3.161522
482 1 19.409111 57.146647 -1.354021
483 1 18.973303 58.902859 0.453479
484 1 22.032838 54.067724 -6.776524
485 1 21.597438 55.824276 -4.969024
486 1 21.161894 57.580644 -3.161523
487 1 20.726219 59.336786 -1.354023
488 1 23.350327 56.258709 -6.776526
489 1 22.914849 58.014918 -4.969025
490 1 24.667995 58.449512 -6.776528
491 2 0.633348 13.306516 -6.776501
492 1 0.278548 15.132704 -4.969003
493 1 1.855184 15.528968 -6.776504
494 1 1.307629 17.294422 -4.969003
495 1 0.951449 18.929186 -3.161502
496 1 0.639761 20.804034 -1.354001
497 1 0.272519 22.606552 0.453497
498 1 3.143499 17.660682 -6.776505
499 1 2.729919 19.406376 -4.969004
500 1 2.328358 21.172305 -3.161503
501 1 1.867252 23.037036 -1.354003
502 1 1.319993 24.769432 0.453497
503 1 0.968277 26.398248 2.260998
504 1 0.647482 28.274857 4.068499
505 1 0.277152 30.073394 5.875998
506 1 4.476130 19.836375 -6.776506
507 1 4.025396 21.625843 -4.969005
508 1 3.578506 23.408580 -3.161505
509 1 3.171530 25.165459 -1.354005
510 1 2.746155 26.892015 0.453496
511 1 2.339150 28.649680 2.260997
512 1 1.875871 30.507708 4.068497
513 1 1.331927 32.233792 5.875998
514 1 5.764384 22.044072 -6.776507
515 1 5.341169 23.811449 -4.969007
516 1 4.928071 25.575580 -3.161506
517 1 4.501050 27.338542 -1.354006
518 1 4.042134 29.112308 0.453495
519 1 3.592511 30.885219 2.260996
520 1 3.184651 32.636086 4.068496
521 1 2.756161 34.359299 5.875997
522 1 7.095023 24.230245 -6.776509
523 1 6.670827 25.999878 -4.969008
524 1 6.233262 27.773456 -3.161507
525 1 5.788694 29.539834 -1.354007
526 1 5.360107 31.295796 0.453494
527 1 4.942890 33.052533 2.260994
528 1 4.512653 34.810445 4.068495
529 1 4.051478 36.579839 5.875995
530 1 8.410952 26.428655 -6.776510
531 1 7.976513 28.198270 -4.969009
532 1 7.545166 29.961851 -3.161509
533 1 7.118121 31.720853 -1.354008
534 1 6.688724 33.482373 0.453492
535 1 6.247496 35.249598 2.260993
536 1 5.800584 37.010954 4.068493
537 1 5.370344 38.762924 5.875994
538 1 9.726273 28.623555 -6.776511
539 1 9.297593 30.387315 -4.969010
540 1 8.867378 32.150452 -3.161510
541 1 8.431923 33.914783 -1.354009
542 1 7.993630 35.678101 0.453491
543 1 7.559430 37.436425 2.260992
544 1 7.130052 39.191234 4.068492
545 1 6.698666 40.949368 5.875992
546 1 11.046745 30.816680 -6.776512
547 1 10.614230 32.581008 -4.969012
548 1 10.179539 34.344508 -3.161511
549 1 9.745692 36.105626 -1.354011
550 1 9.313921 37.864593 0.453490
551 1 8.881076 39.623515 2.260990
552 1 8.443484 41.384224 4.068491
553 1 8.003554 43.144452 5.875991
554 1 12.362808 33.011803 -6.776513
555 1 11.929864 34.774052 -4.969013
556 1 11.497467 36.534952 -3.161512
557 1 11.064623 38.295314 -1.354012
558 1 10.629556 40.055902 0.453488
559 1 10.192696 41.815905 2.260989
560 1 9.757072 43.573913 4.068489
561 1 9.323828 45.330205 5.875990
562 1 13.680764 35.205149 -6.776515
563 1 13.248057 36.966135 -4.969014
564 1 12.814266 38.726997 -3.161514
565 1 12.379327 40.487421 -1.354014
566 1 11.944352 42.246688 0.453487
567 1 11.510141 44.004712 2.260987
568 1 11.075721 45.762447 4.068488
569 1 10.639322 47.520695 5.875988
570 1 14.998490 37.398676 -6.776516
571 1 14.564545 39.159123 -4.969016
572 1 14.130305 40.919012 -3.161516
573 1 13.696145 42.678118 -1.354015
574 1 13.261769 44.436715 0.453485
575 1 12.826439 46.195193 2.260986
576 1 12.390153 47.953364 4.068486
577 1 11.954032 49.710573 5.875987
578 1 16.315674 39.592022 -6.776518
579 1 15.881713 41.351416 -4.969018
580 1 15.447565 43.110490 -3.161517
581 1 15.012883 44.869317 -1.354016
582 1 14.577573 46.627815 0.453484
583 1 14.142054 48.385702 2.260985
584 1 13.706748 50.142875 4.068485
585 1 13.271367 51.899669 5.875985
586 1 17.633326 41.784858 -6.776519
587 1 17.198973 43.543674 -4.969019
588 1 16.764243 45.302316 -3.161518
589 1 16.329246 47.060588 -1.354018
590 1 15.894170 48.818371 0.453483
591 1 15.458952 50.575753 2.260983
592 1 15.023291 52.332910 4.068484
593 1 14.587114 54.089815 5.875984
594 1 18.950734 43.977607 -6.776521
595 1 18.516030 45.735841 -4.969020
596 1 18.081205 47.493842 -3.161520
597 1 17.646226 49.251562 -1.354019
598 1 17.210959 51.009029 0.453481
599 1 16.775339 52.766225 2.260982
600 1 16.339519 54.523039 4.068482
601 1 15.903706 56.279405 5.875983
602 1 20.268204 46.170044 -6.776522
603 1 19.833358 47.927717 -4.969022
604 1 19.398344 49.685265 -3.161521
605 1 18.963097 51.442625 -1.354021
606 1 18.527651 53.199710 0.453480
607 1 18.092094 54.956460 2.260980
608 1 17.656429 56.712894 4.068481
609 1 17.220543 58.469091 5.875981
610 1 21.585765 48.362234 -6.776524
611 1 21.150688 50.119474 -4.969023
612 1 20.715482 51.876596 -3.161523
613 1 20.280160 53.633516 -1.354022
614 1 19.844719 55.390197 0.453478
615 1 19.409111 57.146647 2.260979
616 1 18.973303 58.902859 4.068479
617 1 22.903338 50.554213 -6.776525
618 1 22.468126 52.311020 -4.969025
619 1 22.032838 54.067724 -3.161524
620 1 21.597438 55.824276 -1.354024
621 1 21.161894 57.580644 0.453477
622 1 20.726219 59.336786 2.260977
623 1 24.221032 52.745939 -6.776527
624 1 23.785717 54.502363 -4.969026
625 1 23.350327 56.258709 -3.161526
626 1 22.914849 58.014918 -1.354025
627 1 25.538838 54.937442 -6.776529
628 1 25.103436 56.693516 -4.969028
629 1 24.667995 58.449512 -3.161528
630 1 26.856784 57.128716 -6.776530
631 1 26.421344 58.884454 -4.969030
632 1 28.174910 59.319756 -6.776532
633 2 -0.355124 7.650579 5.876003
634 2 0.766941 9.348901 -6.776501
635 2 0.816303 11.252256 -4.969001
636 2 0.633348 13.306516 -3.161501
637 1 0.278548 15.132705 -1.354003
638 1 2.578585 11.751244 -6.776504
639 1 2.273455 13.587645 -4.969003
640 1 1.855184 15.528968 -3.161504
641 1 1.307629 17.294422 -1.354003
642 1 0.951449 18.929186 0.453498
643 1 0.639761 20.804034 2.260999
644 1 0.272519 22.606552 4.068497
645 1 3.950666 14.042195 -6.776505
646 1 3.535491 15.863893 -4.969005
647 1 3.143499 17.660682 -3.161505
648 1 2.729919 19.406376 -1.354004
649 1 2.328358 21.172305 0.453497
650 1 1.867252 23.037036 2.260997
651 1 1.319993 24.769432 4.068497
652 1 0.968277 26.398248 5.875998
653 1 5.284873 16.266469 -6.776507
654 1 4.888538 18.051611 -4.969006
655 1 4.476130 19.836375 -3.161506
656 1 4.025396 21.625843 -1.354005
657 1 3.578506 23.408580 0.453495
658 1 3.171530 25.165459 2.260995
659 1 2.746155 26.892015 4.068496
660 1 2.339150 28.649680 5.875997
661 1 6.627358 18.476608 -6.776508
662 1 6.200378 20.263091 -4.969008
663 1 5.764384 22.044072 -3.161507
664 1 5.341169 23.811449 -1.354007
665 1 4.928071 25.575580 0.453494
666 1 4.501050 27.338542 2.260994
667 1 4.042134 29.112308 4.068495
668 1 3.592511 30.885219 5.875996
669 1 7.940721 20.689683 -6.776510
670 1 7.515742 22.461675 -4.969009
671 1 7.095023 24.230245 -3.161509
672 1 6.670827 25.999878 -1.354008
673 1 6.233262 27.773456 0.453493
674 1 5.788694 29.539834 2.260993
675 1 5.360107 31.295796 4.068494
676 1 4.942890 33.052533 5.875994
677 1 9.266995 22.888942 -6.776511
678 1 8.841588 24.657601 -4.969010
679 1 8.410952 26.428655 -3.161510
680 1 7.976513 28.198270 -1.354009
681 1 7.545166 29.961851 0.453491
682 1 7.118121 31.720853 2.260992
683 1 6.688724 33.482373 4.068492
684 1 6.247496 35.249598 5.875993
685 1 10.587908 25.090110 -6.776512
686 1 10.156645 26.857520 -4.969012
687 1 9.726273 28.623555 -3.161511
688 1 9.297593 30.387315 -1.354010
689 1 8.867378 32.150452 0.453490
690 1 8.431923 33.914783 2.260991
691 1 7.993630 35.678101 4.068491
692 1 7.559430 37.436425 5.875992
693 1 11.906704 27.288986 -6.776513
694 1 11.476843 29.052690 -4.969013
695 1 11.046745 30.816680 -3.161512
696 1 10.614230 32.581008 -1.354012
697 1 10.179539 34.344508 0.453489
698 1 9.745692 36.105626 2.260989
699 1 9.313921 37.864593 4.068490
700 1 8.881076 39.623515 5.875990
701 1 13.227434 29.485685 -6.776515
702 1 12.795606 31.248604 -4.969014
703 1 12.362808 33.011803 -3.161513
704 1 11.929864 34.774052 -1.354013
705 1 11.497467 36.534952 0.453488
706 1 11.064623 38.295314 2.260988
707 1 10.629556 40.055902 4.068488
708 1 10.192696 41.815905 5.875989
709 1 14.545972 31.682440 -6.776516
710 1 14.113237 33.443883 -4.969015
711 1 13.680764 35.205149 -3.161515
712 1 13.248057 36.966135 -1.354014
713 1 12.814266 38.726997 0.453486
714 1 12.379327 40.487421 2.260986
715 1 11.944352 42.246688 4.068487
716 1 11.510141 44.004712 5.875987
717 1 15.864783 33.877876 -6.776517
718 1 15.431817 35.638141 -4.969017
719 1 14.998490 37.398676 -3.161516
720 1 14.564545 39.159123 -1.354016
721 1 14.130305 40.919012 0.453484
722 1 13.696145 42.678118 2.260985
723 1 13.261769 44.436715 4.068485
724 1 12.826439 46.195193 5.875986
725 1 17.183385 36.072794 -6.776519
726 1 16.749586 37.832372 -4.969018
727 1 16.315674 39.592022 -3.161518
728 1 15.881713 41.351416 -1.354018
729 1 15.447565 43.110490 0.453483
730 1 15.012883 44.869317 2.260984
731 1 14.577573 46.627815 4.068484
732 1 14.142054 48.385702 5.875985
733 1 18.501526 38.267256 -6.776520
734 1 18.067434 40.026009 -4.969020
735 1 17.633326 41.784858 -3.161519
736 1 17.198973 43.543674 -1.354019
737 1 16.764243 45.302316 0.453482
738 1 16.329246 47.060588 2.260982
739 1 15.894170 48.818371 4.068483
740 1 15.458952 50.575753 5.875983
741 1 19.819723 40.461140 -6.776522
742 1 19.385284 42.219304 -4.969021
743 1 18.950734 43.977607 -3.161521
744 1 18.516030 45.735841 -1.354020
745 1 18.081205 47.493842 0.453480
746 1 17.646226 49.251562 2.260981
747 1 17.210959 51.009029 4.068481
748 1 16.775339 52.766225 5.875982
749 1 21.137737 42.654678 -6.776523
750 1 20.702975 44.412319 -4.969023
751 1 20.268204 46.170044 -3.161522
752 1 19.833358 47.927717 -1.354022
753 1 19.398344 49.685265 0.453479
754 1 18.963097 51.442625 2.260979
755 1 18.527651 53.199710 4.068480
756 1 18.092094 54.956460 5.875980
757 1 22.455695 44.847826 -6.776525
758 1 22.020740 46.604981 -4.969024
759 1 21.585765 48.362234 -3.161524
760 1 21.150688 50.119474 -1.354023
761 1 20.715482 51.876596 0.453477
762 1 20.280160 53.633516 2.260978
763 1 19.844719 55.390197 4.068478
764 1 19.409111 57.146647 5.875979
765 1 23.773657 47.040629 -6.776527
766 1 23.338503 48.797379 -4.969026
767 1 22.903338 50.554213 -3.161525
768 1 22.468126 52.311020 -1.354025
769 1 22.032838 54.067724 0.453476
770 1 21.597438 55.824276 2.260976
771 1 21.161894 57.580644 4.068477
772 1 20.726219 59.336786 5.875977
773 1 25.091609 49.233130 -6.776528
774 1 24.656314 50.989501 -4.969028
775 1 24.221032 52.745939 -3.161527
776 1 23.785717 54.502363 -1.354026
777 1 23.350327 56.258709 0.453474
778 1 22.914849 58.014918 2.260975
779 1 26.409617 51.425328 -6.776530
780 1 25.974219 53.181354 -4.969029
781 1 25.538838 54.937442 -3.161529
782 1 25.103436 56.693516 -1.354028
783 1 24.667995 58.449512 0.453472
784 1 27.727701 53.617247 -6.776531
785 1 27.292227 55.372958 -4.969031
786 1 26.856784 57.128716 -3.161530
787 1 26.421344 58.884454 -1.354030
788 1 29.045892 55.808897 -6.776533
789 1 28.610379 57.564309 -4.969032
790 1 28.174910 59.319756 -3.161532
791 1 30.364225 58.000283 -6.776534
792 2 0.883196 3.721086 -6.776501
793 2 0.852121 5.554124 -4.969001
794 2 -0.355123 7.650579 -4.968997
795 1 2.357125 6.078114 -6.776503
796 1 1.969484 7.866450 -4.969005
797 2 0.766941 9.348901 -3.161501
798 2 0.816303 11.252256 -1.354001
799 2 0.633348 13.306516 0.453499
800 1 0.278548 15.132704 2.260997
801 1 3.564452 8.352433 -6.776506
802 1 3.023719 10.074375 -4.969005
803 1 2.578585 11.751244 -3.161504
804 1 2.273454 13.587645 -1.354003
805 1 1.855184 15.528968 0.453496
806 1 1.307629 17.294422 2.260997
807 1 0.951449 18.929186 4.068498
808 1 0.639761 20.804034 5.875999
809 1 4.830903 10.539513 -6.776507
810 1 4.390583 12.265195 -4.969006
811 1 3.950666 14.042195 -3.161505
812 1 3.535491 15.863893 -1.354005
813 1 3.143499 17.660682 0.453495
814 1 2.729919 19.406376 2.260996
815 1 2.328358 21.172305 4.068497
816 1 1.867252 23.037036 5.875997
817 1 6.149908 12.743435 -6.776508
818 1 5.702203 14.498188 -4.969007
819 1 5.284873 16.266469 -3.161507
820 1 4.888538 18.051611 -1.354006
821 1 4.476130 19.836375 0.453494
822 1 4.025396 21.625843 2.260995
823 1 3.578506 23.408580 4.068495
824 1 3.171530 25.165459 5.875995
825 1 7.471244 14.949292 -6.776509
826 1 7.045471 16.704796 -4.969009
827 1 6.627358 18.476608 -3.161508
828 1 6.200378 20.263091 -1.354008
829 1 5.764384 22.044072 0.453493
830 1 5.341169 23.811449 2.260993
831 1 4.928071 25.575580 4.068494
832 1 4.501050 27.338542 5.875994
833 1 8.803358 17.153724 -6.776511
834 1 8.371109 18.917681 -4.969010
835 1 7.940721 20.689683 -3.161510
836 1 7.515742 22.461675 -1.354009
837 1 7.095023 24.230245 0.453491
838 1 6.670827 25.999878 2.260992
839 1 6.233262 27.773456 4.068493
840 1 5.788694 29.539834 5.875993
841 1 10.123745 19.361458 -6.776512
842 1 9.692711 21.123395 -4.969011
843 1 9.266995 22.888942 -3.161511
844 1 8.841588 24.657601 -1.354010
845 1 8.410952 26.428655 0.453490
846 1 7.976513 28.198270 2.260991
847 1 7.545166 29.961851 4.068491
848 1 7.118121 31.720853 5.875992
849 1 11.448211 21.563198 -6.776513
850 1 11.018085 23.324494 -4.969013
851 1 10.587908 25.090110 -3.161512
852 1 10.156645 26.857520 -1.354012
853 1 9.726273 28.623555 0.453489
854 1 9.297593 30.387315 2.260990
855 1 8.867378 32.150452 4.068490