LAMMPS data file via write_data, version 29 Aug 2024, timestep = 548, units = metal

29248 atoms
2 atom types

-100.1 100.1 xlo xhi
-59.6201706 59.6201706 ylo yhi
-7.23 7.23 zlo zhi
0 0 0 xy xz yz

Masses

1 63.55
2 63.55

Atoms # atomic

1 1 0.6652946835100408 58.09212440993897 -6.777493545214461 0 0 0
2 1 0.28740212537599064 52.43501890649345 -6.7774945065344525 0 0 0
3 1 1.3446065315274183 54.594041087827485 -6.777494972810335 0 0 0
4 1 0.9907813078228003 56.21809332002886 -4.969994409821302 0 0 0
5 1 0.6652946826733341 58.09212440779971 -3.1624935430920855 0 0 0
6 1 2.769692806344537 56.71810357248565 -6.777495476470963 0 0 0
7 1 2.359369513640317 58.470743029489334 -4.969994857478491 0 0 0
8 1 4.0658337307667125 58.93682909347745 -6.777495966928271 0 0 0
9 1 0.9830469509415565 48.76368745270968 -6.777493986622186 0 0 0
10 1 0.6586137785257762 50.63809216093019 -4.969993217210634 0 0 0
11 1 0.2874021280891981 52.43501890377089 -3.162494506397635 0 0 0
12 1 2.3521860998955333 51.01583012046289 -6.7774946763845465 0 0 0
13 1 1.8878063843089308 52.870184740535755 -4.969995005008908 0 0 0
14 1 1.3446065275624193 54.59404108881467 -3.162494974101485 0 0 0
15 1 0.9907813060819137 56.21809332141978 -1.3549944090727977 0 0 0
16 1 0.6652946820411643 58.0921244094471 0.4525064548942086 0 0 0
17 1 3.606950330742464 53.24958519358335 -6.777495841231293 0 0 0
18 1 3.198532013363476 54.99729207154136 -4.9699957898546385 0 0 0
19 1 2.7696928076364173 56.71810357247704 -3.1624954772859835 0 0 0
20 1 2.3593695142339044 58.47074302909926 -1.3549948573471282 0 0 0
21 1 4.958749071810729 55.41489576798947 -6.777496605816282 0 0 0
22 1 4.527671028967092 57.16983086342632 -4.969996394377758 0 0 0
23 1 4.065833730595145 58.936829095147424 -3.162495966113062 0 0 0
24 1 6.264393211440066 57.60956274795259 -6.777497283219583 0 0 0
25 1 5.81656715711938 59.36805499410807 -4.969996998411293 0 0 0
26 1 0.6517340566428089 43.1816259823999 -6.777493644567352 0 0 0
27 1 0.28121234425888986 44.979389371948194 -4.969994479630856 0 0 0
28 1 1.8806303560621274 45.41352893968331 -6.777494954770879 0 0 0
29 1 1.336593057460675 47.13890150926213 -4.969994564192499 0 0 0
30 1 0.9830469424579888 48.763687459755594 -3.1624939861107784 0 0 0
31 1 0.6586137752247794 50.63809215806153 -1.3549932232703683 0 0 0
32 1 0.28740212850247815 52.435018903231445 0.4525054942830431 0 0 0
33 1 3.1901307856600596 47.5405667308928 -6.777495512937782 0 0 0
34 1 2.761911408464428 49.26230813468785 -4.9699951555267035 0 0 0
35 1 2.3521860979659266 51.015830121176 -3.162494677638334 0 0 0
36 1 1.8878063840283374 52.870184740352194 -1.354995005841486 0 0 0
37 1 1.344606531808111 54.59404108747537 0.45250502720489544 0 0 0
38 1 0.9907813062206401 56.21809332167397 2.2600055902268705 0 0 0
39 1 0.6652946826268362 58.0921244077686 4.06750645402515 0 0 0
40 1 4.519313712243928 49.71281228980025 -6.777496060633973 0 0 0
41 1 4.057931880367505 51.481071284409545 -4.9699958123224794 0 0 0
42 1 3.6069503284058158 53.24958519558441 -3.1624958409250024 0 0 0
43 1 3.198532012211402 54.99729207118957 -1.3549957895826348 0 0 0
44 1 2.76969280672742 56.71810357236118 0.4525045235329015 0 0 0
45 1 2.3593695133302077 58.47074302949661 2.260005142995264 0 0 0
46 1 5.807771233622432 51.91131260890699 -6.777496820311708 0 0 0
47 1 5.377303453799314 53.66217637626638 -4.969996747120826 0 0 0
48 1 4.958749071103313 55.41489576828095 -3.162496607052625 0 0 0
49 1 4.527671028898595 57.16983086173018 -1.3549963940341627 0 0 0
50 1 4.065833730854948 58.93682909353215 0.4525040330499049 0 0 0
51 1 7.138184008925691 54.08903687718445 -6.777497740460791 0 0 0
52 1 6.70693413728462 55.8459943784492 -4.969997560933145 0 0 0
53 1 6.26439320999431 57.6095627467916 -3.162497283069335 0 0 0
54 1 5.816567157023982 59.36805499416308 -1.354996999087733 0 0 0
55 1 8.452696286670005 56.27933836673426 -6.777498531589621 0 0 0
56 1 8.012782319239136 58.038573214888025 -4.969998285515977 0 0 0
57 1 9.767318334764497 58.46622499765241 -6.7774992962662575 0 0 0
58 1 0.27479106789365915 37.52006568737318 -6.777494636004836 0 0 0
59 1 1.3265452713633294 39.68055642484136 -6.777494870875241 0 0 0
60 1 0.973592403650315 41.306797945521076 -4.9699943982156425 0 0 0
61 1 0.6517340639524178 43.181625983883386 -3.162493649219611 0 0 0
62 1 0.28121233423337344 44.97938937867671 -1.3549944809955667 0 0 0
63 1 2.752741503104403 41.80225352017387 -6.777495463886709 0 0 0
64 1 2.3444097181660624 43.5573848582116 -4.9699949279534215 0 0 0
65 1 1.8806303573470728 45.413528941293315 -3.162494956424874 0 0 0
66 1 1.336593056902231 47.13890150808188 -1.3549945657931544 0 0 0
67 1 0.9830469441430694 48.76368745953278 0.45250601403263774 0 0 0
68 1 0.6586137779768677 50.63809216072814 2.260006770895774 0 0 0
69 1 0.28740212580018465 52.43501890674877 4.067505494623452 0 0 0
70 1 4.048908221124336 44.020760950900744 -6.777495964243119 0 0 0
71 1 3.5983920403800056 45.79133079242251 -4.969995713679638 0 0 0
72 1 3.190130789458081 47.54056673168372 -3.1624955125672827 0 0 0
73 1 2.761911409673317 49.262308135170635 -1.3549951564585003 0 0 0
74 1 2.3521860980992813 51.01583012088256 0.45250532563102364 0 0 0
75 1 1.887806384271542 52.87018474060813 2.260004993511704 0 0 0
76 1 1.344606527240984 54.59404108832316 4.067505026451541 0 0 0
77 1 0.9907813074222958 56.218093320072306 5.875005591123279 0 0 0
78 1 5.367542086661757 46.20204341185757 -6.777496581540305 0 0 0
79 1 4.949749685916828 47.95649785933983 -4.969996317464655 0 0 0
80 1 4.519313714772707 49.71281229210049 -3.1624960615856064 0 0 0
81 1 4.057931879981496 51.481071284356965 -1.3549958128740056 0 0 0
82 1 3.606950330518913 53.24958519368723 0.4525041588601124 0 0 0
83 1 3.198532013825698 54.99729207132142 2.2600042099699236 0 0 0
84 1 2.7696928077104133 56.718103572548436 4.067504522823716 0 0 0
85 1 2.3593695143447064 58.470743029215406 5.875005143208425 0 0 0
86 1 6.696955345622655 48.38597883937563 -6.777497125778765 0 0 0
87 1 6.2551290950164855 50.15130568216335 -4.969996929848466 0 0 0
88 1 5.807771234752153 51.911312608806035 -3.1624968194988576 0 0 0
89 1 5.377303453618879 53.662176376718726 -1.3549967494437334 0 0 0
90 1 4.9587490716839255 55.41489576803203 0.4525033942241895 0 0 0
91 1 4.527671028968612 57.16983086337944 2.260003605596301 0 0 0
92 1 4.06583373062206 58.9368290951146 4.067504033847953 0 0 0
93 1 8.002404492207503 50.57902265886067 -6.777497930559994 0 0 0
94 1 7.567698330122482 52.335666793428224 -4.969997858222791 0 0 0
95 1 7.138184009324789 54.08903687639414 -3.1624977406875723 0 0 0
96 1 6.706934136775089 55.84599437842609 -1.3549975611358325 0 0 0
97 1 6.264393211436527 57.609562747967225 0.4525027167869863 0 0 0
98 1 5.816567157115543 59.36805499410732 2.2600030015711536 0 0 0
99 1 9.323426046729054 52.762537436989554 -6.7774988120603 0 0 0
100 1 8.890349829485345 54.51990021439041 -4.969998716185084 0 0 0
101 1 8.452696284406002 56.279338366030565 -3.162498531849296 0 0 0
102 1 8.012782319311953 58.0385732145023 -1.3549982850336488 0 0 0
103 1 10.639936445382972 54.95073175346345 -6.77749962928684 0 0 0
104 1 10.202927253107433 56.70939271624609 -4.969999415219167 0 0 0
105 1 9.767318335545227 58.466224996197234 -3.1624992955576836 0 0 0
106 1 11.955679321625695 57.13832443042684 -6.777500385553819 0 0 0
107 1 11.521537994198894 58.895085852133214 -4.970000160507105 0 0 0
108 1 13.274325316049087 59.32498757850113 -6.77750092164589 0 0 0
109 1 0.9602231389694253 33.84493373486166 -6.777494339716067 0 0 0
110 1 0.6437182004642636 35.720506932797896 -4.969993537765361 0 0 0
111 1 0.2747908910999399 37.52006558376677 -3.1624946353458356 0 0 0
112 1 2.3346915654911555 36.09232566603182 -6.777494905666786 0 0 0
113 1 1.8722409147001997 37.952048906260835 -4.969995142480466 0 0 0
114 1 1.3265452897930317 39.68055651385756 -3.1624948706601654 0 0 0
115 1 0.9735924178989137 41.30679793232411 -1.354994419695872 0 0 0
116 1 0.651734068478973 43.1816259862347 0.4525063703945206 0 0 0
117 1 0.281212340387043 44.97938937428125 2.2600055174432656 0 0 0
118 1 3.587325472640245 38.326662434652015 -6.777495911212745 0 0 0
119 1 3.179463660711505 40.078855052734916 -4.969995822149731 0 0 0
120 1 2.75274148960591 41.80225350967043 -3.162495464026887 0 0 0
121 1 2.3444097231322587 43.55738485612114 -1.3549949310686948 0 0 0
122 1 1.8806303566588554 45.41352893867387 0.45250504745648573 0 0 0
123 1 1.3365930572982876 47.13890150917279 2.2600054374303533 0 0 0
124 1 0.9830469481732251 48.76368745402484 4.067506014644596 0 0 0
125 1 0.6586137811427619 50.63809216003437 5.87500677565508 0 0 0
126 1 4.938212134041379 40.491388557992316 -6.777496649873897 0 0 0
127 1 4.509252456051115 42.25021582184339 -4.969996363076554 0 0 0
128 1 4.048908223515923 44.020760953979156 -3.1624959626428186 0 0 0
129 1 3.598392039900247 45.79133079180375 -1.354995714973546 0 0 0
130 1 3.1901307877666767 47.540566730073785 0.45250448698050294 0 0 0
131 1 2.7619114086200653 49.2623081346482 2.2600048449702728 0 0 0
132 1 2.3521860994578674 51.01583012084813 4.067505324806617 0 0 0
133 1 1.887806383826316 52.87018473960486 5.875004993816589 0 0 0
134 1 6.243585665990224 42.6862620767353 -6.777497150901529 0 0 0
135 1 5.797270584295276 44.4489515219582 -4.969996868329615 0 0 0
136 1 5.367542087028184 46.20204341154359 -3.1624965809170633 0 0 0
137 1 4.949749685047806 47.956497858982395 -1.3549963179334843 0 0 0
138 1 4.519313712390115 49.71281228947942 0.45250393923115934 0 0 0
139 1 4.057931880438389 51.481071284395306 2.2600041875932035 0 0 0
140 1 3.606950328535177 53.24958519556727 4.067504159172799 0 0 0
141 1 3.198532011968439 54.99729207152742 5.875004210339591 0 0 0
142 1 7.555696248722967 44.87116242922267 -6.777497705064808 0 0 0
143 1 7.127266720739499 46.6269777858217 -4.969997393423358 0 0 0
144 1 6.696955344744055 48.38597883866429 -3.1624971250281235 0 0 0
145 1 6.255129094012105 50.151305682566054 -1.354996927702539 0 0 0
146 1 5.807771233601827 51.91131260886481 0.4525031796295843 0 0 0
147 1 5.377303453728814 53.66217637631063 2.2600032529191547 0 0 0
148 1 4.95874907107175 55.414895768276146 4.067503392900366 0 0 0
149 1 4.527671028891319 57.16983086172262 5.875003605929758 0 0 0
150 1 8.878123825954418 47.05602298025129 -6.777498289181115 0 0 0
151 1 8.441520118574402 48.8177749262499 -4.969998068887476 0 0 0
152 1 8.002404492365784 50.579022659344666 -3.1624979304994882 0 0 0
153 1 7.567698330894018 52.33566679350076 -1.3549978585998077 0 0 0
154 1 7.138184008967897 54.089036877172894 0.45250225953887174 0 0 0
155 1 6.70693413728857 55.845994378460624 2.2600024390805107 0 0 0
156 1 6.264393209980327 57.60956274680726 4.067502716940757 0 0 0
157 1 5.816567157049619 59.36805499414633 5.8750030008992935 0 0 0
158 1 10.190427647900222 49.24637264373933 -6.7774990223789855 0 0 0
159 1 9.755720242334846 51.00539863454954 -4.969998972587362 0 0 0
160 1 9.323426048532525 52.762537439454086 -3.1624988124763385 0 0 0
161 1 8.890349829258753 54.51990021417205 -1.3549987159673127 0 0 0
162 1 8.452696286666026 56.27933836673048 0.4525014684030317 0 0 0
163 1 8.012782319237203 58.03857321489725 2.2600017144796647 0 0 0
164 1 11.508669428185826 51.43307761509215 -6.777499947182566 0 0 0
165 1 11.075310894122211 53.19169818224247 -4.969999804191177 0 0 0
166 1 10.639936446164754 54.95073175509906 -3.162499629149624 0 0 0
167 1 10.202927251900363 56.70939271517813 -1.354999416850465 0 0 0
168 1 9.767318334757647 58.466224997656774 0.45250070371817996 0 0 0
169 1 12.825982187929142 53.62140055529891 -6.777500704996359 0 0 0
170 1 12.390771692673155 55.38040241903904 -4.9700005677980155 0 0 0
171 1 11.955679322017346 57.138324429950806 -3.162500383100413 0 0 0
172 1 11.52153799321681 58.89508585334368 -1.3550001605631288 0 0 0
173 1 14.142718368035048 55.809734093437235 -6.777501356839256 0 0 0
174 1 13.708559763986045 57.56761858368727 -4.970001140661322 0 0 0
175 1 13.27432531772645 59.32498757929249 -3.162500922405498 0 0 0
176 1 15.46096664485654 57.99751026749956 -6.7775020651216416 0 0 0
177 1 0.6334212026668098 28.248465581674417 -6.7774937913191176 0 0 0
178 1 0.26775345208450574 30.052111478440956 -4.969994828365028 0 0 0
179 1 1.8611366670102854 30.48010399549306 -6.777495241145377 0 0 0
180 1 1.311921238629182 32.21529912776176 -4.969994838214376 0 0 0
181 1 0.9602231124970189 33.84493377587753 -3.162494351434671 0 0 0
182 1 0.6437181914429431 35.72050693126035 -1.35499361483676 0 0 0
183 1 0.2747910904020472 37.52006567749833 0.45250536556377496 0 0 0
184 1 3.163500062886996 32.60694279506537 -6.777495842127278 0 0 0
185 1 2.740002961696618 34.33383301687001 -4.969995402124363 0 0 0
186 1 2.3346915651919886 36.09232564487461 -3.1624949072218667 0 0 0
187 1 1.872240913949227 37.95204890778134 -1.3549950650264135 0 0 0
188 1 1.3265452719630275 39.68055642832689 0.452505126950071 0 0 0
189 1 0.9735924089149393 41.30679794031308 2.2600055996815653 0 0 0
190 1 0.6517340568972543 43.18162598163344 4.067506375783647 0 0 0
191 1 0.281212349811085 44.97938936894435 5.87500551825478 0 0 0
192 1 4.494791043995946 34.77678265554179 -6.777496341009891 0 0 0
193 1 4.03677338275908 36.55198342328158 -4.969995995630735 0 0 0
194 1 3.5873254910075616 38.32666243922896 -3.1624959123684286 0 0 0
195 1 3.179463656761385 40.078855055101194 -1.3549958304062666 0 0 0
196 1 2.7527414996784074 41.802253521310426 0.452504535335696 0 0 0
197 1 2.344409719821769 43.55738485770167 2.2600050645147616 0 0 0
198 1 1.8806303569826497 45.41352894188011 4.067505047519468 0 0 0
199 1 1.3365930576963194 47.13890151034362 5.875005434280918 0 0 0
200 1 5.782332184036051 36.97623818345152 -6.777497036737315 0 0 0
201 1 5.354289234922675 38.73368194188962 -4.969996880245915 0 0 0
202 1 4.938212134078796 40.491388557045646 -3.1624966487911235 0 0 0
203 1 4.509252457334284 42.250215822123685 -1.3549963591073408 0 0 0
204 1 4.0489082195556705 44.02076095068636 0.45250403585753907 0 0 0
205 1 3.5983920405146392 45.79133079244021 2.2600042853100346 0 0 0
206 1 3.1901307877293164 47.5405667324025 4.067504487409662 0 0 0
207 1 2.7619114079399907 49.26230813555224 5.875004843583972 0 0 0
208 1 7.112059082996666 39.15500134870543 -6.777497808801498 0 0 0
209 1 6.683829221809987 40.91776908812398 -4.969997495388131 0 0 0
210 1 6.243585665962883 42.68626207708714 -3.162497150510275 0 0 0
211 1 5.797270586067455 44.44895152246425 -1.3549968678216726 0 0 0
212 1 5.367542086259434 46.20204341223995 0.45250341853642145 0 0 0
213 1 4.949749685860596 47.95649785933437 2.260003682129771 0 0 0
214 1 4.519313714664719 49.712812292355885 4.067503938270799 0 0 0
215 1 4.057931879356744 51.48107128428726 5.875004187128396 0 0 0
216 1 8.426486748394908 41.346793807824575 -6.777498327139335 0 0 0
217 1 7.989104540557335 43.11155652800445 -4.969997997896779 0 0 0
218 1 7.555696247236355 44.87116242885258 -3.1624977066122444 0 0 0
219 1 7.127266721319941 46.6269777857787 -1.3549973915898479 0 0 0
220 1 6.696955345597985 48.38597883939732 0.4525028743110626 0 0 0
221 1 6.255129095009124 50.15130568217241 2.2600030701464395 0 0 0
222 1 5.807771234785378 51.911312608814136 4.067503180435514 0 0 0
223 1 5.377303453668986 53.662176376761956 5.875003250574011 0 0 0
224 1 9.740635085220433 43.53571448844399 -6.777498863146639 0 0 0
225 1 9.309901586839175 45.29598303359197 -4.969998549157667 0 0 0
226 1 8.87812382441831 47.056022979783556 -3.162498288430355 0 0 0
227 1 8.441520118601588 48.817774926963715 -1.3549980697448096 0 0 0
228 1 8.002404492220336 50.57902265886283 0.4525020694386966 0 0 0
229 1 7.567698330138995 52.335666793414724 2.260002141796707 0 0 0
230 1 7.138184009327659 54.08903687639873 4.067502259314881 0 0 0
231 1 6.706934136758889 55.84599437841849 5.8750024388907205 0 0 0
232 1 11.06024702118981 45.72337804016686 -6.777499521837211 0 0 0
233 1 10.626291623822098 47.48522316164604 -4.969999256229319 0 0 0
234 1 10.190427648142602 49.24637264542823 -3.1624990226271956 0 0 0
235 1 9.755720242567335 51.005398634571314 -1.3549989720240851 0 0 0
236 1 9.323426046732763 52.76253743699517 0.45250118794005795 0 0 0
237 1 8.890349829478993 54.51990021439365 2.260001283802743 0 0 0
238 1 8.45269628440542 56.27933836603669 4.067501468144445 0 0 0
239 1 8.01278231931093 58.03857321451317 5.8750017149699145 0 0 0
240 1 12.375694983431188 47.913544014832915 -6.777500284683797 0 0 0
241 1 11.941816231527952 49.67401679376672 -4.970000084018117 0 0 0
242 1 11.50866942939038 51.43307761463546 -3.1624999471208977 0 0 0
243 1 11.075310893745765 53.19169818201822 -1.3549998041779896 0 0 0
244 1 10.639936445383327 54.9507317534655 0.45250037071491905 0 0 0
245 1 10.202927253105386 56.70939271624939 2.260000584776722 0 0 0
246 1 9.767318335540693 58.466224996193596 4.067500704432806 0 0 0
247 1 13.693368836355816 50.10228821629135 -6.777500998917235 0 0 0
248 1 13.260175101725324 51.861975206079414 -4.970000869904778 0 0 0
249 1 12.825982187614969 53.62140055344347 -3.162500703689855 0 0 0
250 1 12.3907716941779 55.38040241786154 -1.3550005671822292 0 0 0
251 1 11.955679321622284 57.13832443042795 0.4524996144493545 0 0 0
252 1 11.521537994199122 58.895085852135274 2.259999839492269 0 0 0
253 1 15.011153315582192 52.291493938171534 -6.777501754117273 0 0 0
254 1 14.577065628373362 54.0509910188866 -4.9700015827323 0 0 0
255 1 14.142718366374368 55.809734091779866 -3.1625013572203047 0 0 0
256 1 13.708559763009049 57.56761858473481 -1.355001142113157 0 0 0
257 1 13.274325316042535 59.32498757849719 0.45249907835912373 0 0 0
258 1 16.32871271357162 54.48074198971519 -6.777502518439134 0 0 0
259 1 15.894922674896819 56.239402825824904 -4.970002296038542 0 0 0
260 1 15.460966645811197 57.99751026625946 -3.162502065510324 0 0 0
261 1 17.647099958704743 56.669615863859754 -6.777503302390293 0 0 0
262 1 17.21320503912733 58.427825818799626 -4.970003058479308 0 0 0
263 1 18.965611277375757 58.85849088657803 -6.7775041219088505 0 0 0
264 1 0.27139828601372074 22.581167814586856 -6.777495443316002 0 0 0
265 1 1.2992201754390607 24.741189648890263 -6.777495275003558 0 0 0
266 1 0.9410842122108392 26.376060065019338 -4.969994721829414 0 0 0
267 1 0.6334212045272949 28.248465575501733 -3.162493919130281 0 0 0
268 1 0.26775349944334437 30.052111562909694 -1.3549948314727234 0 0 0
269 1 2.722013754320699 26.84756017812142 -6.777495824373674 0 0 0
270 1 2.3216222551621115 28.613948166004825 -4.969995174818368 0 0 0
271 1 1.8611366755253869 30.480103998990465 -3.162495211305883 0 0 0
272 1 1.3119212268441771 32.215299081779754 -1.3549948300215628 0 0 0
273 1 0.9602231180033272 33.84493375558521 0.45250566110828816 0 0 0
274 1 0.6437181959691856 35.720506931475164 2.2600064299182314 0 0 0
275 1 0.2747908792420475 37.520065589183154 4.067505367597387 0 0 0
276 1 4.017640630185227 29.063830488435222 -6.777496313212995 0 0 0
277 1 3.5707020773541984 30.848578031397132 -4.969996049457783 0 0 0
278 1 3.163500071492095 32.60694278908033 -3.162495845845218 0 0 0
279 1 2.740002969650291 34.33383302213169 -1.354995404623795 0 0 0
280 1 2.3346915572638522 36.09232566920078 0.45250509862588384 0 0 0
281 1 1.8722409140369507 37.95204890645082 2.2600048513197724 0 0 0
282 1 1.3265452894359129 39.68055651154089 4.06750512575196 0 0 0
283 1 0.9735923968126343 41.306797953325024 5.875005579804809 0 0 0
284 1 5.332404968471337 31.247165540083778 -6.777497065092933 0 0 0
285 1 4.920469656842769 33.01264232843912 -4.969996706785384 0 0 0
286 1 4.494791041940246 34.77678265551301 -3.1624963387683054 0 0 0
287 1 4.036773382088683 36.55198342397792 -1.3549959956229425 0 0 0
288 1 3.587325472353882 38.326662434013734 0.45250408972746986 0 0 0
289 1 3.179463659242572 40.07885505352004 2.2600041784023968 0 0 0
290 1 2.752741491673717 41.80225350902625 4.06750453467167 0 0 0
291 1 2.3444097164662736 43.55738485821838 5.8750050670188925 0 0 0
292 1 6.662684738535589 33.43275825228044 -6.777497597085945 0 0 0
293 1 6.226239251191387 35.20811484088323 -4.96999728072651 0 0 0
294 1 5.782332181434128 36.976238184146005 -3.1624970368212364 0 0 0
295 1 5.354289236508038 38.733681941301064 -1.3549968855776646 0 0 0
296 1 4.938212135325841 40.49138855781219 0.4525033505795739 0 0 0
297 1 4.5092524558379665 42.25021582208773 2.2600036374410277 0 0 0
298 1 4.048908224445029 44.020760954118394 4.067504037510175 0 0 0
299 1 3.5983920395078144 45.791330791555545 5.875004284795973 0 0 0
300 1 7.968466531291412 35.629091011640405 -6.777498168457556 0 0 0
301 1 7.538054807683949 37.39453567815311 -4.969998062324255 0 0 0
302 1 7.112059080703148 39.15500134938777 -3.1624978099469896 0 0 0
303 1 6.683829224038959 40.917769087142595 -1.3549974943408967 0 0 0
304 1 6.24358566622665 42.68626207655462 0.45250284910208965 0 0 0
305 1 5.797270584345796 44.44895152197194 2.260003131978549 0 0 0
306 1 5.367542087344162 46.202043411270346 4.067503419174651 0 0 0
307 1 4.949749685686982 47.956497858932586 5.875003682024459 0 0 0
308 1 9.289783025045779 37.81608225130275 -6.777498946261261 0 0 0
309 1 8.860818522499883 39.58093151598532 -4.969998687846225 0 0 0
310 1 8.426486749156638 41.346793806264195 -3.162498326659051 0 0 0
311 1 7.989104541776953 43.11155652836121 -1.3549979994612869 0 0 0
312 1 7.5556962488046935 44.87116242918639 0.45250229488225513 0 0 0
313 1 7.127266720748963 46.626977785814255 2.26000260662349 0 0 0
314 1 6.696955344759928 48.38597883864765 4.0675028750982785 0 0 0
315 1 6.255129094095892 50.1513056824645 5.875003072298872 0 0 0
316 1 10.606942589369197 40.00780916984876 -6.777499623305686 0 0 0
317 1 10.173436431101436 41.77306154285062 -4.969999186284599 0 0 0
318 1 9.740635084332936 43.53571448812075 -3.1624988627777637 0 0 0
319 1 9.309901586938622 45.295983033514396 -1.3549985492493473 0 0 0
320 1 8.87812382594177 47.05602298024743 0.4525017108055748 0 0 0
321 1 8.441520118578254 48.817774926247715 2.260001931100731 0 0 0
322 1 8.002404492354913 50.57902265934296 4.067502069506044 0 0 0
323 1 7.567698330892995 52.33566679350789 5.875002141396634 0 0 0
324 1 11.923065295508238 42.19905407563879 -6.777500086156567 0 0 0
325 1 11.491905506083384 43.96160027043458 -4.969999746140391 0 0 0
326 1 11.060247020541212 45.72337804052297 -3.162499521125922 0 0 0
327 1 10.626291624649951 47.48522316180216 -1.3549992559461612 0 0 0
328 1 10.190427647897621 49.246372643738674 0.4525009776207517 0 0 0
329 1 9.755720242334377 51.005398634543916 2.260001027403472 0 0 0
330 1 9.323426048517987 52.76253743944604 4.067501187513431 0 0 0
331 1 8.8903498292605 54.519900214172246 5.875001284023642 0 0 0
332 1 13.241943422862079 44.38933455754579 -6.777500641343982 0 0 0
333 1 12.809447302115245 46.15174988526085 -4.970000514293442 0 0 0
334 1 12.375694982720063 47.91354401406719 -3.162500285864008 0 0 0
335 1 11.94181623088302 49.6740167942145 -1.3550000833078697 0 0 0
336 1 11.508669428193656 51.43307761509117 0.45250005281574035 0 0 0
337 1 11.0753108941269 53.19169818224534 2.260000195809357 0 0 0
338 1 10.639936446160476 54.950731755098666 4.067500370844377 0 0 0
339 1 10.202927251907326 56.7093927151788 5.875000583149928 0 0 0
340 1 14.559239932551122 46.580567430485566 -6.777501404902597 0 0 0
341 1 14.12630102651805 48.34191633650257 -4.9700011790632725 0 0 0
342 1 13.693368837543034 50.10228821651592 -3.162500998645198 0 0 0
343 1 13.260175102219023 51.861975205945846 -1.3550008681389842 0 0 0
344 1 12.825982187928119 53.62140055530045 0.45249929500913544 0 0 0
345 1 12.390771692682662 55.38040241904006 2.2599994321896024 0 0 0
346 1 11.955679322017275 57.138324429948405 4.067499616900011 0 0 0
347 1 11.521537993220548 58.89508585334496 5.874999839435207 0 0 0
348 1 15.877344250343086 48.77110751451064 -6.777502167917427 0 0 0
349 1 15.44454861343256 50.53151242805618 -4.970001975521928 0 0 0
350 1 15.011153317138536 52.29149393540472 -3.1625017556041066 0 0 0
351 1 14.577065630198703 54.05099101841322 -1.355001582951664 0 0 0
352 1 14.142718368039098 55.80973409343837 0.45249864315026356 0 0 0
353 1 13.708559763989626 57.567618583686674 2.2599988593430433 0 0 0
354 1 13.274325317732604 59.32498757930079 4.067499077592376 0 0 0
355 1 17.19571760373873 50.9615810823284 -6.77750296624741 0 0 0
356 1 16.762380134440335 52.72143089190954 -4.970002734165906 0 0 0
357 1 16.32871271101928 54.4807419897269 -3.1625025179102857 0 0 0
358 1 15.894922673702268 56.239402827343376 -1.355002295654087 0 0 0
359 1 15.460966644856654 57.99751026750439 0.4524979348778527 0 0 0
360 1 18.514056411890778 53.1519263734155 -6.77750367182155 0 0 0
361 1 18.08067661508055 54.910995921769334 -4.970003435671194 0 0 0
362 1 17.64709995840593 56.66961586392545 -3.1625033021613382 0 0 0
363 1 17.213205040574138 58.427825818959825 -1.3550030575010135 0 0 0
364 1 19.832869106385985 55.34191224053128 -6.777504503012028 0 0 0
365 1 19.399372478738115 57.100376895993826 -4.97000431956336 0 0 0
366 1 18.965611278456464 58.858490888034574 -3.1625041219764425 0 0 0
367 1 21.15191252996918 57.53169173434713 -6.777505439929904 0 0 0
368 1 20.718310867317314 59.28957019598442 -4.970005287900913 0 0 0
369 1 0.8003232439518939 18.7051948988449 -6.777494231164869 0 0 0
370 1 0.6237171699151531 20.753743125676998 -4.969993888755198 0 0 0
371 1 0.27139770498193627 22.58116735822137 -3.1624954463050168 0 0 0
372 1 2.2625434115942227 21.027304513749066 -6.777495293022088 0 0 0
373 1 1.8473753389143184 22.971414720421343 -4.96999586371293 0 0 0
374 1 1.2992202597035316 24.74118997728666 -3.1624952569489313 0 0 0
375 1 0.9410842689377716 26.376059994907102 -1.3549948082279737 0 0 0
376 1 0.6334212101508001 28.248465583455108 0.4525062183517531 0 0 0
377 1 0.2677534417504859 30.052111479638945 2.2600051695680383 0 0 0
378 1 3.5250136064182698 23.300354136221692 -6.7774964108291575 0 0 0
379 1 3.1334488652499743 25.10067308483014 -4.969996228313802 0 0 0
380 1 2.72201371064736 26.847560126251757 -3.162495817602565 0 0 0
381 1 2.3216222919465537 28.613948173019075 -1.3549951643673706 0 0 0
382 1 1.8611366714585955 30.48010399642755 0.4525047628272041 0 0 0
383 1 1.3119212388419328 32.215299127822426 2.260005165913568 0 0 0
384 1 0.9602231236377605 33.84493376484959 4.067505650059057 0 0 0
385 1 0.6437182060521991 35.72050693551096 5.8750063752677235 0 0 0
386 1 4.877684296007132 25.484678750903335 -6.777497063830779 0 0 0
387 1 4.467335573756799 27.272167775794877 -4.96999676332557 0 0 0
388 1 4.017640636719264 29.06383049989673 -3.1624963050478585 0 0 0
389 1 3.5707020710154183 30.84857802761598 -1.3549960536580221 0 0 0
390 1 3.163500068146959 32.606942791454934 0.4525041574790275 0 0 0
391 1 2.7400029628510225 34.33383301614821 2.260004599768583 0 0 0
392 1 2.3346915695674397 36.09232564320583 4.067505100853966 0 0 0
393 1 1.8722409160720304 37.95204890720486 5.875004932920353 0 0 0
394 1 6.189790801812592 27.69343296874373 -6.7774976323572025 0 0 0
395 1 5.75495883144302 29.477511719105244 -4.969997345809792 0 0 0
396 1 5.332404963839394 31.247165538250094 -3.1624970674011164 0 0 0
397 1 4.920469657804645 33.01264232987892 -1.3549967043432896 0 0 0
398 1 4.4947910453613105 34.77678265451586 0.45250365871801257 0 0 0
399 1 4.036773383513008 36.551983423411905 2.2600040041617535 0 0 0
400 1 3.5873254911395236 38.326662439625814 4.067504089372785 0 0 0
401 1 3.1794636626894146 40.07885505206962 5.875004169706688 0 0 0
402 1 7.50467193837143 29.889926897902278 -6.777498258546506 0 0 0
403 1 7.085456785192562 31.66112155685756 -4.96999800378415 0 0 0
404 1 6.662684739530761 33.432758250303 -3.162497596526151 0 0 0
405 1 6.226239249668012 35.208114841879386 -1.3549972811753876 0 0 0
406 1 5.782332183661666 36.97623818352084 0.4525029630449261 0 0 0
407 1 5.354289235231249 38.733681941665914 2.260003119422687 0 0 0
408 1 4.938212133311126 40.491388557171 4.067503351973786 0 0 0
409 1 4.509252458174117 42.25021582113832 5.875003641016966 0 0 0
410 1 8.83079927778806 32.08361557635134 -6.777498863407946 0 0 0
411 1 8.401734253136993 33.85725614389238 -4.969998539082536 0 0 0
412 1 7.968466530075659 35.62909101197493 -3.1624981693244014 0 0 0
413 1 7.538054808050248 37.39453567731916 -1.3549980628132527 0 0 0
414 1 7.112059082674847 39.15500134886883 0.4525021911475066 0 0 0
415 1 6.683829221836433 40.9177690880995 2.2600025042796483 0 0 0
416 1 6.24358566582022 42.68626207719415 4.067502849509218 0 0 0
417 1 5.797270585835349 44.44895152248866 5.875003132247888 0 0 0
418 1 10.146094277122785 34.28171263152617 -6.777499351668639 0 0 0
419 1 9.71716248576432 36.050262631689726 -4.969999196622004 0 0 0
420 1 9.289783025194907 37.8160822501876 -3.162498946001462 0 0 0
421 1 8.860818522170263 39.58093151483502 -1.3549986884343095 0 0 0
422 1 8.42648674831294 41.346793807852784 0.45250167288447046 0 0 0
423 1 7.989104540547686 43.11155652801636 2.26000200206268 0 0 0
424 1 7.555696247167745 44.87116242888526 4.0675022933156155 0 0 0
425 1 7.127266721170187 46.626977785852795 5.875002608418194 0 0 0
426 1 11.466622514901005 36.47517812574059 -6.777500050038921 0 0 0
427 1 11.038079922198648 38.24148897144169 -4.969999917455952 0 0 0
428 1 10.606942588970313 40.00780916871292 -3.1624996230218603 0 0 0
429 1 10.173436432206572 41.773061542101765 -1.3549991866489164 0 0 0
430 1 9.740635085213029 43.53571448845667 0.45250113686571297 0 0 0
431 1 9.309901586827621 45.295983033600656 2.260001450847956 0 0 0
432 1 8.878123824428641 47.056022979795905 4.067501711556445 0 0 0
433 1 8.441520118567311 48.81777492697693 5.875001930258661 0 0 0
434 1 12.785942568533713 38.66946895871042 -6.777500785860132 0 0 0
435 1 12.354668442822884 40.434885601733065 -4.970000521377758 0 0 0
436 1 11.923065294724395 42.19905407622222 -3.162500086582448 0 0 0
437 1 11.491905506857776 43.961600270340504 -1.354999745939349 0 0 0
438 1 11.060247021190207 45.723378040169045 0.4525004781697867 0 0 0
439 1 10.626291623825551 47.485223161648626 2.2600007437712675 0 0 0
440 1 10.190427648151072 49.24637264542843 4.067500977364104 0 0 0
441 1 9.755720242569026 51.00539863457289 5.875001027977542 0 0 0