LAMMPS data file via write_data, version 29 Aug 2024, timestep = 562, units = metal

29248 atoms
2 atom types

-100.1 100.1 xlo xhi
-59.6201706 59.6201706 ylo yhi
-7.23 7.23 zlo zhi
0 0 0 xy xz yz

Masses

1 63.55
2 63.55

Atoms # atomic

1 1 0.6745865758689149 58.0131903285999 -6.781466988353543 0 0 0
2 1 0.3002307802953368 52.370131519217686 -6.781467300514759 0 0 0
3 1 1.3281970037026412 54.52251085378922 -6.781467238907994 0 0 0
4 1 0.963707971742366 56.15548093428527 -4.973967162288124 0 0 0
5 1 0.6745865772456341 58.01319032867985 -3.166467028134779 0 0 0
6 1 2.759256021582246 56.60394457686879 -6.781467358327757 0 0 0
7 1 2.364359590280131 58.36644962171889 -4.97396729075429 0 0 0
8 1 4.062214105135666 58.801745296232234 -6.7814674433002535 0 0 0
9 1 0.8065401287883986 48.50491264800518 -6.781467212335383 0 0 0
10 1 0.6461644394250357 50.539245715963396 -4.973967159284137 0 0 0
11 1 0.3002307649680489 52.37013150764978 -3.166467300410769 0 0 0
12 1 2.2838944345548953 50.79593131737803 -6.781467338414803 0 0 0
13 1 1.876721092864102 52.74204605087285 -4.973967411838921 0 0 0
14 1 1.3281970062665778 54.52251086460159 -3.1664672358727817 0 0 0
15 1 0.9637079819570715 56.15548091804013 -1.3589671668585137 0 0 0
16 1 0.6745865758957734 58.01319032872991 0.4485330119177711 0 0 0
17 1 3.5514150775273947 53.056055624169 -6.78146752079279 0 0 0
18 1 3.161486730056609 54.85998382043896 -4.973967481557747 0 0 0
19 1 2.759256018464825 56.60394457284752 -3.166467357413646 0 0 0
20 1 2.3643595955101375 58.36644962745482 -1.3589672886528295 0 0 0
21 1 4.910547810113343 55.22352080522284 -6.781467624896733 0 0 0
22 1 4.507584862802858 57.010807185508476 -4.973967535138501 0 0 0
23 1 4.0622141043374 58.80174529719974 -3.166467441035014 0 0 0
24 1 6.23190255062093 57.41554746329364 -6.781467692964016 0 0 0
25 1 5.801382067439178 59.19962558051835 -4.973967613270089 0 0 0
26 2 0.8477633111452008 40.99497933102332 -4.973967288846203 0 0 0
27 2 -0.35637632580052525 44.95771952080698 -3.16646648238865 0 0 0
28 1 1.9742381877556028 45.07294639266498 -6.781467758272905 0 0 0
29 1 0.7949185219785591 46.61272015005559 -4.973967285187806 0 0 0
30 1 0.8065401202938034 48.50491264565495 -3.1664672139172576 0 0 0
31 1 0.6461644423802255 50.539245718068706 -1.3589671607907834 0 0 0
32 1 0.30023077241304463 52.37013151251926 0.4485327003622405 0 0 0
33 1 3.0067534727720897 47.276031592630055 -6.781467736600204 0 0 0
34 1 2.5757946209992326 48.9552286327629 -4.973967572397324 0 0 0
35 1 2.2838944343507137 50.79593131535719 -3.1664673366755416 0 0 0
36 1 1.8767210924750515 52.742046051446614 -1.358967404339173 0 0 0
37 1 1.3281970049186356 54.52251085821083 0.44853276113865365 0 0 0
38 1 0.9637079709554257 56.15548093599045 2.256032835538977 0 0 0
39 1 0.6745865769867834 58.013190329394355 4.0635329720495035 0 0 0
40 1 4.388553937448691 49.44288984471935 -6.781467774594151 0 0 0
41 1 3.9596935885271165 51.225831087730036 -4.973967647216791 0 0 0
42 1 3.5514150793223394 53.05605562253 -3.166467522017888 0 0 0
43 1 3.1614867264469524 54.859983820995886 -1.3589674835529402 0 0 0
44 1 2.7592560208488948 56.60394457625636 0.4485326420171952 0 0 0
45 1 2.36435959040719 58.36644962161402 2.25603270912677 0 0 0
46 1 5.708462136934173 51.660075044648174 -6.781467833390804 0 0 0
47 1 5.2979173921119695 53.43491453901239 -4.973967756064699 0 0 0
48 1 4.910547809902923 55.22352080370725 -3.1664676248970816 0 0 0
49 1 4.507584862280083 57.01080718626846 -1.3589675347756989 0 0 0
50 1 4.062214105137272 58.8017452963638 0.4485325563515789 0 0 0
51 1 7.05931753188402 53.8495962812218 -6.7814679074594775 0 0 0
52 1 6.650582224823694 55.62546027705857 -4.9739678393801725 0 0 0
53 1 6.23190255082045 57.41554746404588 -3.1664676932838796 0 0 0
54 1 5.801382067197835 59.19962558002924 -1.3589676149550753 0 0 0
55 1 8.395006409084147 56.04507182556657 -6.781467968006431 0 0 0
56 1 7.972940361642259 57.82074746331596 -4.973967833169614 0 0 0
57 1 9.727569070014198 58.23292597921098 -6.781468037060866 0 0 0
58 2 -0.3285965062712961 37.52294721194635 -4.973966913345225 0 0 0
59 2 0.9344844542243749 -40.99178300712503 -6.781467361060359 0 0 1
60 2 0.8358652410522609 42.82414507823537 -3.1664671978692995 0 0 0
61 2 0.847763309234864 40.99497932812539 -1.3589672894647646 0 0 0
62 2 -0.3563762809812516 44.95771949803544 0.4485335165311582 0 0 0
63 1 2.723886333531098 41.37533454078203 -6.781467758077754 0 0 0
64 1 2.3568586124050768 43.2763497697081 -4.9739675457552215 0 0 0
65 1 1.9742381783396183 45.07294639198229 -3.1664677585115504 0 0 0
66 1 0.7949185200367026 46.612720149997564 -1.3589672804383561 0 0 0
67 1 0.8065401279249045 48.50491264774086 0.4485327876087027 0 0 0
68 1 0.6461644440528005 50.5392457163265 2.2560328284850755 0 0 0
69 1 0.30023079182910806 52.37013153257009 4.063532699933186 0 0 0
70 1 4.0450424442356905 43.67452037800212 -6.7814678357115685 0 0 0
71 1 3.5612388986434382 45.5398021178297 -4.973967855772883 0 0 0
72 1 3.006753476339455 47.27603158902971 -3.1664677359417226 0 0 0
73 1 2.575794620993875 48.95522863225094 -1.3589675696976082 0 0 0
74 1 2.2838944335548206 50.79593131683429 0.4485326648594234 0 0 0
75 1 1.8767210897994033 52.74204604950375 2.25603259641431 0 0 0
76 1 1.328197000966398 54.52251084790955 4.063532763630102 0 0 0
77 1 0.9637079806406774 56.15548092084473 5.871032834066326 0 0 0
78 1 5.266628002491331 45.944322048946525 -6.781468017558343 0 0 0
79 1 4.820714001625504 47.712579374320505 -4.973967904191163 0 0 0
80 1 4.388553938329821 49.442889845236 -3.166467774359081 0 0 0
81 1 3.9596935880729234 51.225831088215664 -1.3589676479379196 0 0 0
82 1 3.5514150775732674 53.05605562408467 0.44853247684630004 0 0 0
83 1 3.161486730989793 54.85998382057377 2.2560325179301235 0 0 0
84 1 2.7592560204312804 56.603944575685354 4.0635326425138185 0 0 0
85 1 2.36435959543941 58.366449627021716 5.871032711256414 0 0 0
86 1 6.58702224402586 48.1358385906696 -6.781468053105438 0 0 0
87 1 6.148573885984746 49.898171007109674 -4.973967934493797 0 0 0
88 1 5.708462136684659 51.660075044395704 -3.1664678329830562 0 0 0
89 1 5.297917392432339 53.434914538441 -1.3589677568242515 0 0 0
90 1 4.910547810095167 55.22352080520486 0.4485323753039325 0 0 0
91 1 4.507584862575101 57.01080718552401 2.256032464987722 0 0 0
92 1 4.062214103877551 58.80174529668022 4.063532558852951 0 0 0
93 1 7.906650646863042 50.33049164912092 -6.781468045089676 0 0 0
94 1 7.476397547796495 52.08869318813664 -4.973967982187838 0 0 0
95 1 7.059317531929182 53.849596280655895 -3.1664679074872764 0 0 0
96 1 6.650582225021637 55.62546027725936 -1.3589678390353617 0 0 0
97 1 6.231902550729899 57.41554746325033 0.4485323065236136 0 0 0
98 1 5.801382067420192 59.19962558065871 2.2560323864250513 0 0 0
99 1 9.241580299050781 52.516540269854 -6.781468096974812 0 0 0
100 1 8.81799390454124 54.27650572452095 -4.973968048721366 0 0 0
101 1 8.39500640839367 56.04507182510158 -3.1664679677131837 0 0 0
102 1 7.9729403615158105 57.82074746366836 -1.3589678337018845 0 0 0
103 1 10.57508357170704 54.70558576238292 -6.781468188309477 0 0 0
104 1 10.148820993018717 56.46797587994012 -4.9739681282941435 0 0 0
105 1 9.727569070629372 58.23292597888544 -3.1664680374054672 0 0 0
106 1 11.908376077480241 56.892363058327156 -6.7814682434814815 0 0 0
107 1 11.487017502924573 58.65175346483726 -4.973968192097413 0 0 0
108 1 13.247473458480698 59.07522062251487 -6.7814683704236645 0 0 0
109 2 0.8522816668827318 35.36591846444647 -4.973967771337605 0 0 0
110 2 0.8588882211652731 33.53850785271694 -3.166467793103721 0 0 0
111 2 -0.3285965307970997 37.52294720235863 -1.3589669116504324 0 0 0
112 1 2.3852081862871444 35.787809187815476 -6.78146800399025 0 0 0
113 1 2.0057395088633285 37.58152746147629 -4.973968089172733 0 0 0
114 2 0.8173679186647576 39.138682296833004 -3.166467394516614 0 0 0
115 2 0.8358652052451419 42.82414510068539 0.44853279590551687 0 0 0
116 2 0.8477633104169513 40.99497932568648 2.2560327141973917 0 0 0
117 2 -0.35637632262246655 44.95771951289837 4.063533518023689 0 0 0
118 1 3.6103755791868224 38.03244418672569 -6.781468119083419 0 0 0
119 1 3.078309067342474 39.746414421243195 -4.973967957040619 0 0 0
120 1 2.7238863310704744 41.37533454067829 -3.166467763600924 0 0 0
121 1 2.3568586160291574 43.27634977254076 -1.3589675525502947 0 0 0
122 1 1.974238132113129 45.072946379385606 0.4485322403455058 0 0 0
123 1 0.7949185225716491 46.61272014978976 2.256032713758809 0 0 0
124 1 0.8065401197145121 48.50491264531899 4.0635327877034095 0 0 0
125 1 0.6461644458351543 50.53924571610076 5.871032844705989 0 0 0
126 1 4.9216244385636685 40.17867560624287 -6.7814681561891765 0 0 0
127 1 4.47261681161784 41.91313549514829 -4.973967977723789 0 0 0
128 1 4.045042442811379 43.67452037937368 -3.1664678343251262 0 0 0
129 1 3.561238904925162 45.539802119200026 -1.3589678667705405 0 0 0
130 1 3.006753475428397 47.27603160563802 0.44853226295884496 0 0 0
131 1 2.575794621869278 48.95522863212508 2.256032426246052 0 0 0
132 1 2.2838944360800895 50.79593131607623 4.063532664272262 0 0 0
133 1 1.8767210871688604 52.742046050196 5.871032590998939 0 0 0
134 1 6.216782914323375 42.3860911658036 -6.781468163075046 0 0 0
135 1 5.737495062186426 44.163970018810424 -4.973968036314361 0 0 0
136 1 5.2666279998213525 45.944322049061206 -3.166468015785311 0 0 0
137 1 4.820714000522045 47.71257937295439 -1.3589679034733584 0 0 0
138 1 4.388553936161145 49.44288984316287 0.44853222512349855 0 0 0
139 1 3.959693588814133 51.22583108738551 2.256032352782431 0 0 0
140 1 3.5514150790021546 53.05605562207601 4.0635324770383106 0 0 0
141 1 3.161486728264123 54.859983821780695 5.87103251641925 0 0 0
142 1 7.475248039344649 44.613775120783664 -6.781468232076134 0 0 0
143 1 7.021705637637922 46.376161068154424 -4.973968157181813 0 0 0
144 1 6.587022244256488 48.13583859172915 -3.1664680530812657 0 0 0
145 1 6.1485738863529065 49.89817100747489 -1.3589679352302242 0 0 0
146 1 5.708462137068651 51.66007504479925 0.4485321662995099 0 0 0
147 1 5.297917392267976 53.43491453902539 2.2560322439619287 0 0 0
148 1 4.910547809704084 55.22352080366809 4.063532375059679 0 0 0
149 1 4.507584861794271 57.010807186062344 5.871032464975171 0 0 0
150 1 8.7827775516742 46.811129819062664 -6.781468318595445 0 0 0
151 1 8.34362264421506 48.570125695313344 -4.973968205304855 0 0 0
152 1 7.906650646205378 50.3304916492039 -3.1664680451639953 0 0 0
153 1 7.476397548179662 52.08869318796929 -1.3589679817819242 0 0 0
154 1 7.059317531937822 53.84959628131225 0.4485320926063979 0 0 0
155 1 6.650582224760967 55.62546027702836 2.2560321604285942 0 0 0
156 1 6.231902550754995 57.41554746404616 4.063532306628903 0 0 0
157 1 5.801382067257094 59.199625580095564 5.871032385290884 0 0 0
158 1 10.102883189460428 49.00345251054808 -6.781468321065024 0 0 0
159 1 9.669174885853991 50.7599817052949 -4.973968180367635 0 0 0
160 1 9.241580298924333 52.516540269518565 -3.1664680970645827 0 0 0
161 1 8.817993904231557 54.276505724579756 -1.3589680487490254 0 0 0
162 1 8.395006409324523 56.04507182561813 0.4485320319134663 0 0 0
163 1 7.972940361393725 57.82074746345652 2.2560321665860803 0 0 0
164 1 11.432065754705121 51.190584433201444 -6.781468293127108 0 0 0
165 1 11.002952157921584 52.94661394340695 -4.973968241222388 0 0 0
166 1 10.5750835717308 54.70558576236825 -3.1664681884062724 0 0 0
167 1 10.148820993273318 56.467975880183694 -1.3589681291000502 0 0 0
168 1 9.727569070161564 58.23292597928758 0.44853196293993486 0 0 0
169 1 12.763199678600941 53.377654434666304 -6.781468332725664 0 0 0
170 1 12.334273535676104 55.13439125012837 -4.973968306039473 0 0 0
171 1 11.90837607826046 56.89236305816322 -3.166468243901227 0 0 0
172 1 11.487017503086008 58.65175346466244 -1.3589681916561285 0 0 0
173 1 14.095523816568104 55.563385712274645 -6.781468409752268 0 0 0
174 1 13.66992890118945 57.31867785626634 -4.973968331736665 0 0 0
175 1 13.247473458387006 59.07522062216727 -3.166468370022564 0 0 0
176 1 15.431780842326688 57.746897262982735 -6.781468493962565 0 0 0
177 2 0.8656127245644569 26.085147121347454 -4.973968084172335 0 0 0
178 2 -0.3151152338772505 30.07920007488827 -3.166467171955603 0 0 0
179 1 2.0198299318289656 30.116665630915797 -6.781468367748086 0 0 0
180 2 0.8382122601460225 31.684216138292648 -4.973967779893218 0 0 0
181 2 0.8522815891410431 35.36591845815716 -1.358967773821213 0 0 0
182 2 0.8588882213286695 33.5385078540292 0.44853220553347034 0 0 0
183 2 -0.3285964982315335 37.522947209296454 2.2560330861512967 0 0 0
184 1 3.09194135332352 32.27781420496935 -6.781468390821079 0 0 0
185 1 2.7376581677240495 33.902214282965666 -4.9739682654611945 0 0 0
186 1 2.3852081872635438 35.787809187372254 -3.1664680428126197 0 0 0
187 1 2.005739539939043 37.58152748363488 -1.3589680878219321 0 0 0
188 2 0.8173679135048104 39.13868229747582 0.44853260585463656 0 0 0
189 2 0.8358652404205316 42.82414508345112 4.063532806188345 0 0 0
190 2 0.8477633102940558 40.99497932881396 5.8710327125147215 0 0 0
191 2 -0.35637635055513783 44.957719534749295 -6.7814664833385905 0 0 1
192 1 4.500454308203359 34.428657006782764 -6.781468453009659 0 0 0
193 1 4.080179983965834 36.18231875270552 -4.973968266675273 0 0 0
194 1 3.6103755803853375 38.032444186235814 -3.166468103734266 0 0 0
195 1 3.078309063774043 39.74641440806169 -1.3589679525650473 0 0 0
196 1 2.723886356005039 41.37533452225362 0.44853224099549466 0 0 0
197 1 2.3568586198295662 43.2763497743123 2.2560324671586884 0 0 0
198 1 1.9742381776918165 45.072946388946285 4.063532240385371 0 0 0
199 1 0.794918519231075 46.61272015075044 5.871032718602581 0 0 0
200 1 5.786036605056864 36.6638293879579 -6.781468439115843 0 0 0
201 1 5.333017579754511 38.429408680047466 -4.973968323482581 0 0 0
202 1 4.9216244386555985 40.178675605184615 -3.166468157908789 0 0 0
203 1 4.472616811802993 41.913135497828755 -1.3589679745794825 0 0 0
204 1 4.045042452016844 43.67452037240147 0.44853216357006265 0 0 0
205 1 3.561238904392539 45.53980211892269 2.256032154926067 0 0 0
206 1 3.006753477503324 47.27603159038005 4.063532262736206 0 0 0
207 1 2.575794620479442 48.95522863409726 5.871032429277981 0 0 0
208 1 7.097015226970143 38.86344265964966 -6.7814685066914215 0 0 0
209 1 6.66478365694617 40.623051847366675 -4.973968327173782 0 0 0
210 1 6.216782917038557 42.38609116462525 -3.166468162888828 0 0 0
211 1 5.7374950609237345 44.163970018967795 -1.3589680343387933 0 0 0
212 1 5.266628003368751 45.944322049049084 0.44853198213139645 0 0 0
213 1 4.820714001219628 47.712579373584866 2.256032095553201 0 0 0
214 1 4.388553938780319 49.44288984522472 4.063532225960552 0 0 0
215 1 3.9596935884512874 51.22583108724074 5.871032352214331 0 0 0
216 1 8.400925751871867 41.07430030113 -6.781468408677965 0 0 0
217 1 7.9415353816362995 42.845614963957495 -4.973968275056109 0 0 0
218 1 7.475248040592078 44.613775120184265 -3.166468232376842 0 0 0
219 1 7.021705637606246 46.376161068001345 -1.3589681557684659 0 0 0
220 1 6.587022244229658 48.13583859065972 0.4485319463645019 0 0 0
221 1 6.148573886556392 49.89817100721043 2.256032065164197 0 0 0
222 1 5.708462137132045 51.66007504422108 4.063532166798267 0 0 0
223 1 5.297917392733694 53.43491453863884 5.871032243008847 0 0 0
224 1 9.680439019663453 43.290728731763146 -6.781468362195763 0 0 0
225 1 9.227399112652762 45.053195251245306 -4.973968365641976 0 0 0
226 1 8.782777552067813 46.81112981929585 -3.1664683184606144 0 0 0
227 1 8.343622644093529 48.57012569569314 -1.358968205864347 0 0 0
228 1 7.906650646872038 50.33049164912 0.4485319545491833 0 0 0
229 1 7.476397547932919 52.08869318792977 2.2560320177297677 0 0 0
230 1 7.059317531885171 53.84959628056651 4.063532092357628 0 0 0
231 1 6.65058222488706 55.62546027709919 5.871032160935314 0 0 0
232 1 10.98340747831675 45.4894402051602 -6.781468452250687 0 0 0
233 1 10.541492144030514 47.24668241431801 -4.973968393859346 0 0 0
234 1 10.102883189559023 49.00345251066624 -3.1664683209221587 0 0 0
235 1 9.669174886229158 50.75998170547302 -1.3589681805976455 0 0 0
236 1 9.241580299075167 52.51654026986018 0.4485319030602451 0 0 0
237 1 8.817993904589912 54.27650572461125 2.2560319512335805 0 0 0
238 1 8.395006408221121 56.045071825266255 4.063532032154497 0 0 0
239 1 7.972940361199036 57.820747463578265 5.871032166439967 0 0 0
240 1 12.300766234564179 47.68085727561688 -6.781468485838884 0 0 0
241 1 11.8643940309682 49.43584366796474 -4.973968402865857 0 0 0
242 1 11.432065754622414 51.19058443372821 -3.1664682929745975 0 0 0
243 1 11.002952157684405 52.946613943290664 -1.3589682412989965 0 0 0
244 1 10.575083571822503 54.70558576231715 0.448531811646523 0 0 0
245 1 10.148820992960722 56.467975880204186 2.2560318716771155 0 0 0
246 1 9.727569070413011 58.23292597906573 4.063531962654312 0 0 0
247 1 13.626146630384511 49.868317006137424 -6.781468442323797 0 0 0
248 1 13.193784439787137 51.62241530860137 -4.973968411029512 0 0 0
249 1 12.763199679133223 53.377654434209894 -3.1664683330236643 0 0 0
250 1 12.334273535482382 55.134391249781906 -1.3589683059295565 0 0 0
251 1 11.908376077492662 56.892363058313755 0.4485317566046373 0 0 0
252 1 11.48701750283982 58.651753464956734 2.256031808120554 0 0 0
253 1 14.954965310928799 52.054710763035295 -6.781468483843751 0 0 0
254 1 14.524130889447747 53.8087618238282 -4.973968461517424 0 0 0
255 1 14.095523816563656 55.56338571257778 -3.166468409534209 0 0 0
256 1 13.669928900830058 57.318677856312824 -1.3589683315200671 0 0 0
257 1 13.247473458367764 59.075220622420225 0.44853162977465716 0 0 0
258 1 16.28586323288512 54.240018979947585 -6.78146855305836 0 0 0
259 1 15.857614813565334 55.99317573541459 -4.973968511902371 0 0 0
260 1 15.431780842671742 57.746897263616795 -3.1664684936412026 0 0 0
261 1 17.619718356361773 56.42397443443071 -6.781468575799642 0 0 0
262 1 17.19343712102811 58.17670777372867 -4.973968615752449 0 0 0
263 1 18.95464233590016 58.60791705774903 -6.781468677655179 0 0 0
264 2 -0.30685381711734294 22.63089802932813 -4.973967730747945 0 0 0
265 2 0.8500482963539326 24.23121848947502 -3.1664681684927243 0 0 0
266 2 0.8609643271490341 27.9123886625896 -3.166467966803222 0 0 0
267 2 0.8656127251390586 26.08514712102413 -1.3589680855872237 0 0 0
268 2 -0.315115232858318 30.079200073683886 0.4485328281647325 0 0 0
269 1 2.744640451900338 26.44187176627181 -6.7814685667052395 0 0 0
270 1 2.3976404058974197 28.323176471919943 -4.973968287016524 0 0 0
271 1 2.0198299313152432 30.116665632278163 -3.166468367544189 0 0 0
272 2 0.8382122604757143 31.684216138399258 -1.3589677796984991 0 0 0
273 2 0.8522816657881833 35.36591846801354 2.256032227074422 0 0 0
274 2 0.8588882209800204 33.53850785241149 4.063532207684349 0 0 0
275 2 -0.3285965381875684 37.52294720428973 5.871033089286673 0 0 0
276 1 4.093721348332778 28.715450356650273 -6.781468537670189 0 0 0
277 1 3.6254040094108007 30.563774249860565 -4.973968472326273 0 0 0
278 1 3.091941354447002 32.2778142069834 -3.166468381839144 0 0 0
279 1 2.7376581921104304 33.90221425719884 -1.3589682641864316 0 0 0
280 1 2.3852081856037444 35.7878091876616 0.44853199692082213 0 0 0
281 1 2.005739500458688 37.581527458206615 2.2560319110087734 0 0 0
282 2 0.817367915953966 39.13868229724533 4.06353260481418 0 0 0
283 2 0.8358652433701366 42.82414506682169 -6.781467189916379 0 0 1
284 1 5.350046488197961 30.95764136854367 -6.7814686949104805 0 0 0
285 1 4.940980770157438 32.70285288012517 -4.973968587139927 0 0 0
286 1 4.500454307937218 34.428657005870086 -3.1664684506505107 0 0 0
287 1 4.080179990817157 36.18231875770825 -1.3589682668886947 0 0 0
288 1 3.6103755811932103 38.03244418716468 0.4485318815511442 0 0 0
289 1 3.078309067923854 39.74641442701141 2.256032040690155 0 0 0
290 1 2.723886332715338 41.37533454100687 4.063532235402692 0 0 0
291 1 2.3568586154567157 43.276349772337475 5.8710324474000535 0 0 0
292 1 6.693103279081797 33.14112808948419 -6.7814687411725245 0 0 0
293 1 6.253546588833785 34.89686856417219 -4.973968607544077 0 0 0
294 1 5.78603660401906 36.663829387573806 -3.1664684375857406 0 0 0
295 1 5.3330175757749885 38.429408678273 -1.3589683243032387 0 0 0
296 1 4.92162443214437 40.1786756091304 0.44853184387456374 0 0 0
297 1 4.472616808894784 41.91313549527809 2.25603202059827 0 0 0
298 1 4.045042437946606 43.674520379867296 4.063532162592592 0 0 0
299 1 3.5612388983811627 45.53980211717799 5.871032143691926 0 0 0
300 1 7.987342570512851 35.3525159525279 -6.7814687192646375 0 0 0
301 1 7.534187128559495 37.1110761035121 -4.973968641617148 0 0 0
302 1 7.097015225923201 38.86344266041362 -3.166468507289083 0 0 0
303 1 6.664783658346323 40.62305184800649 -1.3589683294136976 0 0 0
304 1 6.216782913013105 42.38609116680852 0.44853183677197594 0 0 0
305 1 5.737495061844797 44.163970019726115 2.2560319628888936 0 0 0
306 1 5.2666280003698915 45.94432204945874 4.063531980707819 0 0 0
307 1 4.820714002140363 47.712579374075 5.871032096402266 0 0 0
308 1 9.288465715194278 37.55442088795201 -6.781468693886399 0 0 0
309 1 8.847115626559514 39.31134605810616 -4.9739685883944444 0 0 0
310 1 8.400925752102665 41.07430030244122 -3.1664684088101356 0 0 0
311 1 7.941535381605675 42.84561496367699 -1.3589682754193875 0 0 0
312 1 7.475248039382521 44.613775120850896 0.4485317680077623 0 0 0
313 1 7.021705637489646 46.376161067776685 2.2560318426173023 0 0 0
314 1 6.587022244434536 48.13583859135097 4.063531946971302 0 0 0
315 1 6.148573886276168 49.89817100709035 5.871032065278906 0 0 0
316 1 10.590034612843695 39.76048703068995 -6.781468630190433 0 0 0
317 1 10.136989232260092 41.52501751526034 -4.9739684871544725 0 0 0
318 1 9.6804390193509 43.2907287323849 -3.1664683621377177 0 0 0
319 1 9.227399112840203 45.05319525117937 -1.3589683661625236 0 0 0
320 1 8.782777551748879 46.811129819047416 0.4485316810334767 0 0 0
321 1 8.34362264437982 48.57012569515398 2.2560317943573773 0 0 0
322 1 7.9066506462711885 50.33049164874911 4.063531954696721 0 0 0
323 1 7.476397548341765 52.0886931877757 5.871032018160906 0 0 0
324 1 11.880339584635507 41.96958438364437 -6.781468563902426 0 0 0
325 1 11.42958374710608 43.730690677984164 -4.973968492648337 0 0 0
326 1 10.98340747822536 45.48944020591687 -3.1664684524849815 0 0 0
327 1 10.54149214401518 47.246682414530476 -1.3589683935912196 0 0 0
328 1 10.102883189519304 49.00345251051265 0.4485316788341428 0 0 0
329 1 9.669174885811046 50.75998170495517 2.256031819576344 0 0 0
330 1 9.241580298756546 52.51654026936762 4.063531902861572 0 0 0
331 1 8.817993903976728 54.276505724626325 5.87103195120849 0 0 0
332 1 13.183478580796006 44.16829412764458 -6.781468602981981 0 0 0
333 1 12.740557205163128 45.92506969719192 -4.973968521615701 0 0 0
334 1 12.300766234413928 47.680857275739875 -3.1664684859802894 0 0 0
335 1 11.864394031100375 49.4358436680213 -1.3589684024429503 0 0 0
336 1 11.432065754810452 51.190584433155074 0.4485317070096009 0 0 0
337 1 11.00295215773879 52.94661394334245 2.256031758786352 0 0 0
338 1 10.575083571434604 54.70558576252693 4.063531811627999 0 0 0
339 1 10.148820993090709 56.46797588033461 5.871031870926627 0 0 0
340 1 14.498934183212569 46.36000443643527 -6.781468575695456 0 0 0
341 1 14.061082040259024 48.11442357362949 -4.973968516939631 0 0 0
342 1 13.626146629820752 49.868317006291385 -3.1664684423065266 0 0 0
343 1 13.193784439779648 51.62241530876474 -1.3589684111399631 0 0 0
344 1 12.763199678660655 53.377654434630806 0.44853166724050547 0 0 0
345 1 12.334273535394942 55.13439125003732 2.256031694008737 0 0 0
346 1 11.908376078075051 56.8923630581614 4.063531756129294 0 0 0
347 1 11.487017503093142 58.65175346474489 5.87103180829942 0 0 0
348 1 15.821789587099772 48.54798557246223 -6.781468540360906 0 0 0
349 1 15.387479542164584 50.301218498753336 -4.973968554986155 0 0 0
350 1 14.954965312403871 52.0547107627258 -3.1664684842519724 0 0 0
351 1 14.5241308893401 53.8087618231959 -1.3589684618065017 0 0 0
352 1 14.095523816615383 55.56338571220123 0.44853159041457946 0 0 0
353 1 13.669928901068445 57.31867785606004 2.2560316684727315 0 0 0
354 1 13.247473458571008 59.0752206221261 4.063531629991419 0 0 0
355 1 17.148618131146378 50.73438595797379 -6.781468605597294 0 0 0
356 1 16.716329929337107 52.487120525336856 -4.973968578405956 0 0 0
357 1 16.285863233170105 54.24001898034452 -3.166468552634939 0 0 0
358 1 15.857614813175104 55.99317573557389 -1.3589685119643586 0 0 0
359 1 15.431780842278883 57.74689726307971 0.44853150628458377 0 0 0
360 1 18.47797652572345 52.9197132474684 -6.781468555627196 0 0 0
361 1 18.047892838155164 54.67174093545872 -4.973968579025763 0 0 0
362 1 17.619718355506066 56.423974434566325 -3.1664685755484503 0 0 0
363 1 17.19343712121315 58.17670777360481 -1.3589686151526927 0 0 0
364 1 19.809778051468626 55.104122555272646 -6.781468601386215 0 0 0
365 1 19.38145661280994 56.85578920654806 -4.973968609910718 0 0 0
366 1 18.95464233566129 58.607917057674705 -3.16646867802125 0 0 0
367 1 21.142604492061977 57.28860607398837 -6.781468655028228 0 0 0
368 1 20.715106109465367 59.04045362537311 -4.973968636073009 0 0 0
369 2 0.8670223576977776 20.459455243578866 -4.973968307388276 0 0 0
370 2 0.8707462637303109 18.632278003654285 -3.166468371377278 0 0 0
371 2 -0.3068538174176467 22.630898029189716 -1.3589677306224908 0 0 0
372 1 2.4053289328265492 20.86515019548508 -6.781468584524228 0 0 0
373 1 2.0282478243087922 22.658627449562708 -4.973968756188698 0 0 0
374 2 0.8500482957836084 24.231218490218815 0.4485318318539027 0 0 0
375 2 0.860964327028853 27.91238866214298 0.4485320331119229 0 0 0
376 2 0.8656127247831478 26.085147121336796 2.256031916012588 0 0 0
377 2 -0.31511523402437547 30.079200075144918 4.063532828169065 0 0 0
378 1 3.633819318282093 23.104178798449105 -6.78146881717531 0 0 0
379 1 3.0991836227886154 24.818688544259807 -4.9739686868509905 0 0 0
380 1 2.744640452664356 26.441871767638467 -3.1664685665294283 0 0 0
381 1 2.3976404058799687 28.323176471856918 -1.3589682869835804 0 0 0
382 1 2.019829929887763 30.116665630335213 0.4485316320026423 0 0 0
383 2 0.8382122602216668 31.684216137907733 2.2560322200036738 0 0 0
384 2 0.852281589793705 35.36591845503332 5.871032226566007 0 0 0
385 2 0.8173679141128929 39.138682297762706 -6.7814673939136005 0 0 1
386 1 4.950056077328043 25.240645868383886 -6.781468867275411 0 0 0
387 1 4.512044596728757 26.963736138512765 -4.9739687412822 0 0 0
388 1 4.093721348204397 28.715450356599654 -3.166468538236794 0 0 0
389 1 3.625404009558622 30.563774250666064 -1.358968471992346 0 0 0
390 1 3.0919413534694797 32.27781420597989 0.4485316094336839 0 0 0
391 1 2.7376581688801878 33.902214282221074 2.2560317343076837 0 0 0
392 1 2.385208187241716 35.78780918720803 4.063531958041803 0 0 0
393 1 2.0057395476028006 37.58152748646079 5.871031911201824 0 0 0
394 1 6.267626755713906 27.42986194693855 -6.781468927645189 0 0 0
395 1 5.801802338379019 29.194443615101186 -4.9739687582576995 0 0 0
396 1 5.350046487290541 30.95764136880296 -3.1664686962143804 0 0 0
397 1 4.940980762034528 32.702852884274584 -1.3589685861886 0 0 0
398 1 4.500454308123494 34.42865700676091 0.44853154686522567 0 0 0
399 1 4.080179985064291 36.18231875172625 2.256031733286338 0 0 0
400 1 3.610375581200074 38.032444185607964 4.063531900493729 0 0 0
401 1 3.07830906318506 39.74641440222384 5.871032043287158 0 0 0
402 1 7.553104660806042 29.639353817355577 -6.781468945614663 0 0 0
403 1 7.119173967197128 31.387722306668202 -4.9739688770597414 0 0 0
404 1 6.69310327884611 33.1411280900794 -3.1664687429269236 0 0 0
405 1 6.253546587667145 34.89686856559225 -1.3589686070441194 0 0 0
406 1 5.7860366046886185 36.6638293882282 0.4485315608522764 0 0 0
407 1 5.333017580604903 38.429408679344384 2.2560316764081016 0 0 0
408 1 4.921624438625301 40.178675605350485 4.063531842815756 0 0 0
409 1 4.472616813251207 41.91313549827675 5.871032023181672 0 0 0
410 1 8.87575882000398 31.832163731008613 -6.781468989742808 0 0 0
411 1 8.43686237985898 33.58899179658777 -4.973968848759028 0 0 0
412 1 7.987342570538942 35.352515953045106 -3.166468719423952 0 0 0
413 1 7.5341871282439286 37.11107610347167 -1.3589686419153846 0 0 0
414 1 7.0970152280821 38.86344265896593 0.4485314930606099 0 0 0
415 1 6.664783658058951 40.62305184750405 2.2560316734466865 0 0 0
416 1 6.216782918210768 42.38609116401286 4.063531837911049 0 0 0
417 1 5.737495062898077 44.16397001895037 5.871031966309792 0 0 0
418 1 10.179092016140984 34.03809575445856 -6.781468908795948 0 0 0
419 1 9.731880322253502 35.79751985224116 -4.973968798685876 0 0 0
420 1 9.288465716519326 37.55442088731122 -3.166468693425364 0 0 0
421 1 8.84711562700629 39.31134605852824 -1.3589685886180463 0 0 0
422 1 8.400925751928625 41.074300301079695 0.448531590970875 0 0 0
423 1 7.941535381500316 42.84561496379688 2.256031724982104 0 0 0
424 1 7.475248040726129 44.61377512000977 4.063531767688072 0 0 0
425 1 7.021705637947207 46.37616106783397 5.871031844575583 0 0 0
426 1 11.480717395314002 36.241530108784126 -6.78146883942589 0 0 0
427 1 11.036829215596867 37.99978585769586 -4.973968743751443 0 0 0
428 1 10.590034613727411 39.760487030990326 -3.16646863026276 0 0 0
429 1 10.136989232433564 41.52501751496697 -1.3589684860657205 0 0 0
430 1 9.680439019572503 43.290728731824366 0.4485316375379835 0 0 0
431 1 9.227399112677787 45.05319525114137 2.2560316340562268 0 0 0
432 1 8.782777552013869 46.81112981915043 4.063531681482718 0 0 0
433 1 8.343622644149377 48.57012569549433 5.871031794303952 0 0 0
434 1 12.782069308442118 38.44571619298011 -6.7814687578290265 0 0 0
435 1 12.332401804865484 40.2072543361034 -4.973968667726562 0 0 0
436 1 11.880339584683824 41.96958438415276 -3.1664685641324137 0 0 0
437 1 11.429583746831753 43.73069067781696 -1.3589684920351996 0 0 0
438 1 10.983407478341888 45.48944020512916 0.44853154769562265 0 0 0
439 1 10.54149214401393 47.24668241415021 2.2560316060160477 0 0 0
440 1 10.102883189602593 49.00345251032437 4.063531679080934 0 0 0
441 1 9.669174886218286 50.75998170520864 5.871031819396136 0 0 0