#LAMMPS data file
29248 atoms
2 atom types
-125.2250000000 125.2250000000 xlo xhi
-59.6201706000 59.6201706000 ylo yhi
-7.2300000000 7.2300000000 zlo zhi
0.0 0.0 0.0 xy xz yz

Atoms # atomic

1 2 0.877909 57.716555 -6.783202
2 2 -0.289713 52.449060 -4.975704
3 2 0.877915 54.035831 -6.783202
4 2 0.877909 55.889473 -4.975702
5 2 0.877909 57.716555 -3.168202
6 1 2.756548 56.230689 -6.783201
7 1 2.420235 58.107127 -4.975702
8 1 4.116028 58.493245 -6.783201
9 2 0.877908 48.436951 -6.783202
10 2 0.877909 50.264034 -4.975702
11 2 -0.289713 52.449060 -1.360704
12 1 2.420234 50.654607 -6.783202
13 1 2.045535 52.449051 -4.975701
14 2 0.877915 54.035831 -3.168202
15 2 0.877909 55.889473 -1.360702
16 2 0.877909 57.716555 0.446798
17 1 3.649419 52.890244 -6.783201
18 1 3.111037 54.608017 -4.975701
19 1 2.756548 56.230689 -3.168201
20 1 2.420235 58.107127 -1.360702
21 1 4.964178 55.021780 -6.783200
22 1 4.530622 56.742309 -4.975701
23 1 4.116028 58.493245 -3.168201
24 1 6.288449 57.202307 -6.783200
25 1 5.824431 58.966391 -4.975700
26 2 0.877909 42.811513 -6.783202
27 2 -0.289714 44.996538 -3.168203
28 1 2.045535 44.996531 -6.783201
29 2 0.877912 46.583310 -4.975702
30 2 0.877908 48.436951 -3.168202
31 2 0.877909 50.264034 -1.360702
32 2 -0.289713 52.449060 2.254296
33 1 3.111037 47.155497 -6.783201
34 1 2.756548 48.778169 -4.975701
35 1 2.420234 50.654607 -3.168201
36 1 2.045535 52.449051 -1.360701
37 2 0.877915 54.035831 0.446798
38 2 0.877909 55.889473 2.254298
39 2 0.877909 57.716555 4.061798
40 1 4.530621 49.289789 -6.783200
41 1 4.116028 51.040724 -4.975701
42 1 3.649419 52.890244 -3.168201
43 1 3.111037 54.608017 -1.360701
44 1 2.756548 56.230689 0.446799
45 1 2.420235 58.107127 2.254298
46 1 5.824431 51.513871 -6.783200
47 1 5.372814 53.277530 -4.975700
48 1 4.964178 55.021780 -3.168200
49 1 4.530622 56.742309 -1.360701
50 1 4.116028 58.493245 0.446799
51 1 7.144795 53.699586 -6.783200
52 1 6.722986 55.449723 -4.975700
53 1 6.288449 57.202307 -3.168200
54 1 5.824431 58.966391 -1.360700
55 1 8.471672 55.889851 -6.783200
56 1 8.026427 57.650140 -4.975700
57 1 9.776263 58.087471 -6.783199
58 2 -0.289715 37.544017 -4.975703
59 2 0.877912 39.130789 -6.783202
60 2 0.877908 40.984430 -4.975702
61 2 0.877909 42.811513 -3.168202
62 2 -0.289714 44.996538 0.446797
63 1 2.756547 41.325648 -6.783201
64 1 2.420234 43.202086 -4.975701
65 1 2.045535 44.996531 -3.168201
66 2 0.877912 46.583310 -1.360702
67 2 0.877908 48.436952 0.446798
68 2 0.877909 50.264034 2.254298
69 2 -0.289713 52.449060 5.869296
70 1 4.116027 43.588204 -6.783200
71 1 3.649418 45.437723 -4.975701
72 1 3.111037 47.155497 -3.168201
73 1 2.756548 48.778169 -1.360701
74 1 2.420234 50.654607 0.446798
75 1 2.045535 52.449051 2.254299
76 2 0.877915 54.035831 4.061798
77 2 0.877909 55.889473 5.869298
78 1 5.372813 45.825009 -6.783200
79 1 4.964178 47.569259 -4.975700
80 1 4.530621 49.289789 -3.168200
81 1 4.116028 51.040724 -1.360701
82 1 3.649419 52.890244 0.446799
83 1 3.111037 54.608017 2.254299
84 1 2.756548 56.230689 4.061799
85 1 2.420235 58.107127 5.869298
86 1 6.722986 47.997202 -6.783200
87 1 6.288449 49.749786 -4.975700
88 1 5.824431 51.513871 -3.168200
89 1 5.372814 53.277530 -1.360700
90 1 4.964179 55.021780 0.446800
91 1 4.530622 56.742309 2.254299
92 1 4.116028 58.493245 4.061799
93 1 8.026427 50.197619 -6.783199
94 1 7.576982 51.952750 -4.975700
95 1 7.144795 53.699586 -3.168200
96 1 6.722986 55.449723 -1.360700
97 1 6.288449 57.202307 0.446800
98 1 5.824431 58.966391 2.254300
99 1 9.338779 52.386686 -6.783199
100 1 8.906205 54.136178 -4.975699
101 1 8.471672 55.889851 -3.168200
102 1 8.026427 57.650140 -1.360700
103 1 10.659481 54.576352 -6.783199
104 1 10.218703 56.331888 -4.975699
105 1 9.776263 58.087471 -3.168199
106 1 11.970390 56.770659 -6.783199
107 1 11.531907 58.523743 -4.975699
108 1 13.287043 58.961263 -6.783199
109 2 0.877908 33.531909 -6.783202
110 2 0.877909 35.358992 -4.975702
111 2 -0.289715 37.544017 -1.360703
112 1 2.420234 35.749565 -6.783201
113 1 2.045534 37.544010 -4.975701
114 2 0.877912 39.130789 -3.168202
115 2 0.877908 40.984430 -1.360702
116 2 0.877909 42.811513 0.446798
117 2 -0.289714 44.996538 4.061797
118 1 3.649418 37.985202 -6.783200
119 1 3.111036 39.702976 -4.975700
120 1 2.756547 41.325648 -3.168201
121 1 2.420234 43.202086 -1.360701
122 1 2.045535 44.996531 0.446799
123 2 0.877912 46.583310 2.254298
124 2 0.877908 48.436951 4.061798
125 2 0.877909 50.264034 5.869298
126 1 4.964178 40.116738 -6.783200
127 1 4.530621 41.837268 -4.975700
128 1 4.116027 43.588204 -3.168200
129 1 3.649418 45.437723 -1.360701
130 1 3.111037 47.155497 0.446799
131 1 2.756548 48.778169 2.254299
132 1 2.420234 50.654607 4.061799
133 1 2.045535 52.449051 5.869299
134 1 6.288448 42.297266 -6.783199
135 1 5.824430 44.061351 -4.975700
136 1 5.372813 45.825009 -3.168200
137 1 4.964178 47.569259 -1.360700
138 1 4.530621 49.289789 0.446800
139 1 4.116028 51.040724 2.254299
140 1 3.649419 52.890244 4.061799
141 1 3.111037 54.608017 5.869299
142 1 7.576982 44.500229 -6.783199
143 1 7.144794 46.247066 -4.975700
144 1 6.722986 47.997202 -3.168200
145 1 6.288449 49.749786 -1.360700
146 1 5.824431 51.513871 0.446800
147 1 5.372814 53.277530 2.254300
148 1 4.964178 55.021780 4.061800
149 1 4.530622 56.742309 5.869299
150 1 8.906205 46.683657 -6.783199
151 1 8.471672 48.437331 -4.975699
152 1 8.026427 50.197619 -3.168199
153 1 7.576982 51.952750 -1.360700
154 1 7.144795 53.699586 0.446800
155 1 6.722986 55.449723 2.254300
156 1 6.288449 57.202307 4.061800
157 1 5.824431 58.966391 5.869300
158 1 10.218703 48.879368 -6.783199
159 1 9.776263 50.634950 -4.975699
160 1 9.338779 52.386686 -3.168199
161 1 8.906205 54.136178 -1.360699
162 1 8.471672 55.889851 0.446800
163 1 8.026427 57.650140 2.254300
164 1 11.531907 51.071223 -6.783199
165 1 11.096042 52.823307 -4.975699
166 1 10.659481 54.576352 -3.168199
167 1 10.218703 56.331888 -1.360699
168 1 9.776263 58.087471 0.446801
169 1 12.849659 53.261990 -6.783199
170 1 12.410614 55.016266 -4.975699
171 1 11.970390 56.770659 -3.168199
172 1 11.531907 58.523743 -1.360699
173 1 14.163133 55.454895 -6.783199
174 1 13.724509 57.208358 -4.975699
175 1 13.287043 58.961263 -3.168199
176 1 15.478661 57.646324 -6.783199
177 2 0.877909 27.906470 -6.783202
178 2 -0.289714 30.091496 -3.168203
179 1 2.045535 30.091488 -6.783201
180 2 0.877914 31.678268 -4.975702
181 2 0.877908 33.531909 -3.168202
182 2 0.877908 35.358992 -1.360702
183 2 -0.289715 37.544017 2.254297
184 1 3.111036 32.250454 -6.783200
185 1 2.756547 33.873127 -4.975700
186 1 2.420234 35.749565 -3.168201
187 1 2.045534 37.544010 -1.360701
188 2 0.877912 39.130789 0.446798
189 2 0.877908 40.984430 2.254298
190 2 0.877909 42.811513 4.061798
191 2 -0.289714 44.996538 -6.783203
192 1 4.530620 34.384747 -6.783200
193 1 4.116027 36.135683 -4.975700
194 1 3.649418 37.985202 -3.168200
195 1 3.111036 39.702976 -1.360700
196 1 2.756547 41.325648 0.446799
197 1 2.420234 43.202086 2.254299
198 1 2.045535 44.996531 4.061799
199 2 0.877912 46.583310 5.869298
200 1 5.824430 36.608830 -6.783200
201 1 5.372813 38.372488 -4.975700
202 1 4.964178 40.116738 -3.168200
203 1 4.530621 41.837268 -1.360700
204 1 4.116027 43.588204 0.446800
205 1 3.649418 45.437723 2.254299
206 1 3.111037 47.155497 4.061799
207 1 2.756548 48.778169 5.869299
208 1 7.144794 38.794545 -6.783199
209 1 6.722985 40.544681 -4.975699
210 1 6.288448 42.297266 -3.168199
211 1 5.824430 44.061351 -1.360700
212 1 5.372813 45.825009 0.446800
213 1 4.964178 47.569259 2.254300
214 1 4.530621 49.289789 4.061800
215 1 4.116028 51.040724 5.869299
216 1 8.471672 40.984810 -6.783199
217 1 8.026426 42.745099 -4.975699
218 1 7.576982 44.500229 -3.168199
219 1 7.144794 46.247066 -1.360700
220 1 6.722986 47.997202 0.446800
221 1 6.288449 49.749786 2.254300
222 1 5.824431 51.513871 4.061800
223 1 5.372814 53.277530 5.869300
224 1 9.776263 43.182430 -6.783199
225 1 9.338779 44.934165 -4.975699
226 1 8.906205 46.683657 -3.168199
227 1 8.471672 48.437331 -1.360699
228 1 8.026427 50.197619 0.446801
229 1 7.576982 51.952750 2.254300
230 1 7.144795 53.699586 4.061800
231 1 6.722986 55.449723 5.869300
232 1 11.096042 45.370787 -6.783199
233 1 10.659481 47.123831 -4.975699
234 1 10.218703 48.879368 -3.168199
235 1 9.776263 50.634950 -1.360699
236 1 9.338779 52.386686 0.446801
237 1 8.906205 54.136178 2.254301
238 1 8.471672 55.889851 4.061800
239 1 8.026427 57.650140 5.869300
240 1 12.410613 47.563746 -6.783199
241 1 11.970390 49.318138 -4.975699
242 1 11.531907 51.071223 -3.168199
243 1 11.096042 52.823307 -1.360699
244 1 10.659481 54.576352 0.446801
245 1 10.218703 56.331888 2.254301
246 1 9.776263 58.087471 4.061801
247 1 13.724509 49.755838 -6.783199
248 1 13.287043 51.508742 -4.975699
249 1 12.849659 53.261990 -3.168199
250 1 12.410614 55.016266 -1.360699
251 1 11.970390 56.770659 0.446801
252 1 11.531907 58.523743 2.254301
253 1 15.040752 51.947161 -6.783199
254 1 14.602241 53.700937 -4.975699
255 1 14.163133 55.454895 -3.168199
256 1 13.724509 57.208358 -1.360699
257 1 13.287043 58.961263 0.446801
258 1 16.355252 54.139462 -6.783199
259 1 15.916714 55.893023 -4.975699
260 1 15.478661 57.646324 -3.168199
261 1 17.670435 56.331205 -6.783200
262 1 17.232277 58.084654 -4.975699
263 1 18.985632 58.523088 -6.783200
264 2 -0.289714 22.638974 -4.975703
265 2 0.877914 24.225746 -6.783202
266 2 0.877908 26.079387 -4.975702
267 2 0.877909 27.906470 -3.168202
268 2 -0.289714 30.091496 0.446797
269 1 2.756547 26.420605 -6.783201
270 1 2.420234 28.297043 -4.975701
271 1 2.045535 30.091488 -3.168201
272 2 0.877914 31.678268 -1.360702
273 2 0.877908 33.531909 0.446798
274 2 0.877909 35.358992 2.254298
275 2 -0.289715 37.544017 5.869297
276 1 4.116027 28.683161 -6.783200
277 1 3.649418 30.532681 -4.975700
278 1 3.111036 32.250454 -3.168200
279 1 2.756547 33.873127 -1.360700
280 1 2.420234 35.749565 0.446799
281 1 2.045534 37.544010 2.254299
282 2 0.877912 39.130789 4.061798
283 2 0.877908 40.984430 5.869298
284 1 5.372813 30.919967 -6.783200
285 1 4.964177 32.664217 -4.975700
286 1 4.530620 34.384747 -3.168200
287 1 4.116027 36.135683 -1.360700
288 1 3.649418 37.985202 0.446800
289 1 3.111036 39.702976 2.254300
290 1 2.756547 41.325648 4.061799
291 1 2.420234 43.202086 5.869299
292 1 6.722985 33.092160 -6.783199
293 1 6.288448 34.844745 -4.975699
294 1 5.824430 36.608830 -3.168200
295 1 5.372813 38.372488 -1.360700
296 1 4.964178 40.116738 0.446800
297 1 4.530621 41.837268 2.254300
298 1 4.116027 43.588204 4.061800
299 1 3.649418 45.437723 5.869299
300 1 8.026426 35.292578 -6.783199
301 1 7.576981 37.047708 -4.975699
302 1 7.144794 38.794545 -3.168199
303 1 6.722985 40.544681 -1.360699
304 1 6.288448 42.297266 0.446801
305 1 5.824430 44.061351 2.254300
306 1 5.372813 45.825009 4.061800
307 1 4.964178 47.569259 5.869300
308 1 9.338778 37.481645 -6.783199
309 1 8.906205 39.231136 -4.975699
310 1 8.471672 40.984810 -3.168199
311 1 8.026426 42.745099 -1.360699
312 1 7.576982 44.500229 0.446801
313 1 7.144794 46.247066 2.254300
314 1 6.722986 47.997202 4.061800
315 1 6.288449 49.749786 5.869300
316 1 10.659480 39.671311 -6.783199
317 1 10.218702 41.426847 -4.975699
318 1 9.776263 43.182430 -3.168199
319 1 9.338779 44.934165 -1.360699
320 1 8.906205 46.683657 0.446801
321 1 8.471672 48.437331 2.254301
322 1 8.026427 50.197619 4.061801
323 1 7.576982 51.952750 5.869300
324 1 11.970389 41.865617 -6.783199
325 1 11.531907 43.618702 -4.975699
326 1 11.096042 45.370787 -3.168199
327 1 10.659481 47.123831 -1.360699
328 1 10.218703 48.879368 0.446801
329 1 9.776263 50.634950 2.254301
330 1 9.338779 52.386686 4.061801
331 1 8.906205 54.136178 5.869301
332 1 13.287043 44.056221 -6.783199
333 1 12.849658 45.809469 -4.975699
334 1 12.410613 47.563746 -3.168199
335 1 11.970390 49.318138 -1.360699
336 1 11.531907 51.071223 0.446801
337 1 11.096042 52.823307 2.254301
338 1 10.659481 54.576352 4.061801
339 1 10.218703 56.331888 5.869301
340 1 14.602240 46.248417 -6.783199
341 1 14.163132 48.002374 -4.975699
342 1 13.724509 49.755838 -3.168199
343 1 13.287043 51.508742 -1.360699
344 1 12.849659 53.261990 0.446801
345 1 12.410614 55.016266 2.254301
346 1 11.970390 56.770659 4.061801
347 1 11.531907 58.523743 5.869301
348 1 15.916714 48.440502 -6.783199
349 1 15.478661 50.193803 -4.975699
350 1 15.040752 51.947161 -3.168199
351 1 14.602241 53.700937 -1.360699
352 1 14.163133 55.454895 0.446801
353 1 13.724509 57.208358 2.254301
354 1 13.287043 58.961263 4.061801
355 1 17.232277 50.632134 -6.783199
356 1 16.793908 52.385743 -4.975699
357 1 16.355252 54.139462 -3.168199
358 1 15.916714 55.893023 -1.360699
359 1 15.478661 57.646324 0.446801
360 1 18.547160 52.824184 -6.783199
361 1 18.108701 54.577751 -4.975699
362 1 17.670435 56.331205 -3.168200
363 1 17.232277 58.084654 -1.360699
364 1 19.862249 55.016033 -6.783200
365 1 19.423973 56.769531 -4.975700
366 1 18.985632 58.523088 -3.168200
367 1 21.177395 57.207911 -6.783200
368 1 20.738995 58.961482 -4.975700
369 2 0.877909 18.626866 -6.783202
370 2 0.877909 20.453948 -4.975702
371 2 -0.289714 22.638974 -1.360703
372 1 2.420234 20.844521 -6.783201
373 1 2.045535 22.638966 -4.975701
374 2 0.877914 24.225746 -3.168202
375 2 0.877908 26.079387 -1.360702
376 2 0.877909 27.906470 0.446798
377 2 -0.289714 30.091496 4.061797
378 1 3.649418 23.080159 -6.783200
379 1 3.111036 24.797933 -4.975700
380 1 2.756547 26.420605 -3.168201
381 1 2.420234 28.297043 -1.360701
382 1 2.045535 30.091488 0.446799
383 2 0.877914 31.678268 2.254298
384 2 0.877908 33.531909 4.061798
385 2 0.877908 35.358992 5.869298
386 1 4.964178 25.211695 -6.783200
387 1 4.530620 26.932225 -4.975700
388 1 4.116027 28.683161 -3.168200
389 1 3.649418 30.532681 -1.360700
390 1 3.111036 32.250454 0.446800
391 1 2.756547 33.873127 2.254300
392 1 2.420234 35.749565 4.061799
393 1 2.045534 37.544010 5.869299
394 1 6.288448 27.392223 -6.783199
395 1 5.824430 29.156308 -4.975700
396 1 5.372813 30.919967 -3.168200
397 1 4.964177 32.664217 -1.360700
398 1 4.530620 34.384747 0.446800
399 1 4.116027 36.135683 2.254300
400 1 3.649418 37.985202 4.061800
401 1 3.111036 39.702976 5.869300
402 1 7.576981 29.595187 -6.783199
403 1 7.144794 31.342024 -4.975699
404 1 6.722985 33.092160 -3.168199
405 1 6.288448 34.844745 -1.360699
406 1 5.824430 36.608830 0.446800
407 1 5.372813 38.372488 2.254300
408 1 4.964178 40.116738 4.061800
409 1 4.530621 41.837268 5.869300
410 1 8.906204 31.778615 -6.783199
411 1 8.471671 33.532289 -4.975699
412 1 8.026426 35.292578 -3.168199
413 1 7.576981 37.047708 -1.360699
414 1 7.144794 38.794545 0.446801
415 1 6.722985 40.544681 2.254301
416 1 6.288448 42.297266 4.061801
417 1 5.824430 44.061351 5.869300
418 1 10.218702 33.974326 -6.783199
419 1 9.776262 35.729909 -4.975699
420 1 9.338778 37.481645 -3.168199
421 1 8.906205 39.231136 -1.360699
422 1 8.471672 40.984810 0.446801
423 1 8.026426 42.745099 2.254301
424 1 7.576982 44.500229 4.061801
425 1 7.144794 46.247066 5.869300
426 1 11.531906 36.166182 -6.783199
427 1 11.096041 37.918266 -4.975699
428 1 10.659480 39.671311 -3.168199
429 1 10.218702 41.426847 -1.360699
430 1 9.776263 43.182430 0.446801
431 1 9.338779 44.934165 2.254301
432 1 8.906205 46.683657 4.061801
433 1 8.471672 48.437331 5.869301
434 1 12.849658 38.356949 -6.783199
435 1 12.410613 40.111225 -4.975699
436 1 11.970389 41.865617 -3.168199
437 1 11.531907 43.618702 -1.360699
438 1 11.096042 45.370787 0.446801
439 1 10.659481 47.123831 2.254301
440 1 10.218703 48.879368 4.061801
441 1 9.776263 50.634950 5.869301
442 1 14.163132 40.549854 -6.783199
443 1 13.724509 42.303317 -4.975699
444 1 13.287043 44.056221 -3.168199
445 1 12.849658 45.809469 -1.360699
446 1 12.410613 47.563746 0.446801
447 1 11.970390 49.318138 2.254301
448 1 11.531907 51.071223 4.061801
449 1 11.096042 52.823307 5.869301
450 1 15.478660 42.741282 -6.783199
451 1 15.040752 44.494640 -4.975699
452 1 14.602240 46.248417 -3.168199
453 1 14.163132 48.002374 -1.360699
454 1 13.724509 49.755838 0.446801
455 1 13.287043 51.508742 2.254301
456 1 12.849659 53.261990 4.061801
457 1 12.410614 55.016266 5.869301
458 1 16.793908 44.933223 -6.783199
459 1 16.355251 46.686942 -4.975699
460 1 15.916714 48.440502 -3.168199
461 1 15.478661 50.193803 -1.360699
462 1 15.040752 51.947161 0.446801
463 1 14.602241 53.700937 2.254301
464 1 14.163133 55.454895 4.061801
465 1 13.724509 57.208358 5.869301
466 1 18.108700 47.125231 -6.783199
467 1 17.670435 48.878685 -4.975699
468 1 17.232277 50.632134 -3.168199
469 1 16.793908 52.385743 -1.360699
470 1 16.355252 54.139462 0.446801
471 1 15.916714 55.893023 2.254301
472 1 15.478661 57.646324 4.061801
473 1 19.423973 49.317010 -6.783200
474 1 18.985631 51.070568 -4.975699
475 1 18.547160 52.824184 -3.168199
476 1 18.108701 54.577751 -1.360699
477 1 17.670435 56.331205 0.446800
478 1 17.232277 58.084654 2.254301
479 1 20.738994 51.508961 -6.783200
480 1 20.300585 53.262521 -4.975699
481 1 19.862249 55.016033 -3.168199
482 1 19.423973 56.769531 -1.360700
483 1 18.985632 58.523088 0.446800
484 1 22.054066 53.700845 -6.783200
485 1 21.615739 55.454368 -4.975700
486 1 21.177395 57.207911 -3.168200
487 1 20.738995 58.961482 -1.360700
488 1 23.369180 55.892728 -6.783200
489 1 22.930806 57.646281 -4.975700
490 1 24.684241 58.084634 -6.783200
491 2 0.877910 13.001427 -6.783202
492 2 -0.289714 15.186452 -3.168203
493 1 2.045535 15.186445 -6.783201
494 2 0.877914 16.773224 -4.975702
495 2 0.877909 18.626866 -3.168202
496 2 0.877909 20.453948 -1.360702
497 2 -0.289714 22.638974 2.254297
498 1 3.111037 17.345411 -6.783200
499 1 2.756548 18.968083 -4.975701
500 1 2.420234 20.844521 -3.168201
501 1 2.045535 22.638966 -1.360701
502 2 0.877914 24.225746 0.446798
503 2 0.877908 26.079387 2.254298
504 2 0.877909 27.906470 4.061798
505 2 -0.289714 30.091496 -6.783203
506 1 4.530621 19.479704 -6.783200
507 1 4.116028 21.230640 -4.975700
508 1 3.649418 23.080159 -3.168201
509 1 3.111036 24.797933 -1.360700
510 1 2.756547 26.420605 0.446799
511 1 2.420234 28.297043 2.254299
512 1 2.045535 30.091488 4.061799
513 2 0.877914 31.678268 5.869298
514 1 5.824430 21.703787 -6.783200
515 1 5.372813 23.467445 -4.975700
516 1 4.964178 25.211695 -3.168200
517 1 4.530620 26.932225 -1.360700
518 1 4.116027 28.683161 0.446800
519 1 3.649418 30.532681 2.254300
520 1 3.111036 32.250454 4.061800
521 1 2.756547 33.873127 5.869300
522 1 7.144794 23.889502 -6.783199
523 1 6.722985 25.639639 -4.975699
524 1 6.288448 27.392223 -3.168199
525 1 5.824430 29.156308 -1.360700
526 1 5.372813 30.919967 0.446800
527 1 4.964177 32.664217 2.254300
528 1 4.530620 34.384747 4.061800
529 1 4.116027 36.135683 5.869300
530 1 8.471671 26.079767 -6.783199
531 1 8.026426 27.840057 -4.975699
532 1 7.576981 29.595187 -3.168199
533 1 7.144794 31.342024 -1.360699
534 1 6.722985 33.092160 0.446801
535 1 6.288448 34.844745 2.254301
536 1 5.824430 36.608830 4.061800
537 1 5.372813 38.372488 5.869300
538 1 9.776262 28.277388 -6.783199
539 1 9.338778 30.029124 -4.975699
540 1 8.906204 31.778615 -3.168199
541 1 8.471671 33.532289 -1.360699
542 1 8.026426 35.292578 0.446801
543 1 7.576981 37.047708 2.254301
544 1 7.144794 38.794545 4.061801
545 1 6.722985 40.544681 5.869301
546 1 11.096041 30.465745 -6.783199
547 1 10.659480 32.218790 -4.975699
548 1 10.218702 33.974326 -3.168199
549 1 9.776262 35.729909 -1.360699
550 1 9.338778 37.481645 0.446801
551 1 8.906205 39.231136 2.254301
552 1 8.471672 40.984810 4.061801
553 1 8.026426 42.745099 5.869301
554 1 12.410612 32.658704 -6.783199
555 1 11.970389 34.413096 -4.975699
556 1 11.531906 36.166182 -3.168199
557 1 11.096041 37.918266 -1.360699
558 1 10.659480 39.671311 0.446801
559 1 10.218702 41.426847 2.254301
560 1 9.776263 43.182430 4.061801
561 1 9.338779 44.934165 5.869301
562 1 13.724508 34.850796 -6.783199
563 1 13.287042 36.603701 -4.975699
564 1 12.849658 38.356949 -3.168199
565 1 12.410613 40.111225 -1.360699
566 1 11.970389 41.865617 0.446801
567 1 11.531907 43.618702 2.254301
568 1 11.096042 45.370787 4.061801
569 1 10.659481 47.123831 5.869301
570 1 15.040751 37.042119 -6.783199
571 1 14.602240 38.795896 -4.975699
572 1 14.163132 40.549854 -3.168199
573 1 13.724509 42.303317 -1.360699
574 1 13.287043 44.056221 0.446801
575 1 12.849658 45.809469 2.254301
576 1 12.410613 47.563746 4.061801
577 1 11.970390 49.318138 5.869301
578 1 16.355251 39.234421 -6.783199
579 1 15.916713 40.987981 -4.975699
580 1 15.478660 42.741282 -3.168199
581 1 15.040752 44.494640 -1.360699
582 1 14.602240 46.248417 0.446801
583 1 14.163132 48.002374 2.254301
584 1 13.724509 49.755838 4.061801
585 1 13.287043 51.508742 5.869301
586 1 17.670434 41.426163 -6.783199
587 1 17.232276 43.179613 -4.975699
588 1 16.793908 44.933223 -3.168199
589 1 16.355251 46.686942 -1.360699
590 1 15.916714 48.440502 0.446801
591 1 15.478661 50.193803 2.254301
592 1 15.040752 51.947161 4.061801
593 1 14.602241 53.700937 5.869301
594 1 18.985631 43.618047 -6.783199
595 1 18.547160 45.371663 -4.975699
596 1 18.108700 47.125231 -3.168199
597 1 17.670435 48.878685 -1.360699
598 1 17.232277 50.632134 0.446801
599 1 16.793908 52.385743 2.254301
600 1 16.355252 54.139462 4.061801
601 1 15.916714 55.893023 5.869301
602 1 20.300584 45.810000 -6.783199
603 1 19.862248 47.563512 -4.975699
604 1 19.423973 49.317010 -3.168200
605 1 18.985631 51.070568 -1.360699
606 1 18.547160 52.824184 0.446801
607 1 18.108701 54.577751 2.254301
608 1 17.670435 56.331205 4.061800
609 1 17.232277 58.084654 5.869301
610 1 21.615739 48.001846 -6.783200
611 1 21.177394 49.755390 -4.975700
612 1 20.738994 51.508961 -3.168200
613 1 20.300585 53.262521 -1.360699
614 1 19.862249 55.016033 0.446800
615 1 19.423973 56.769531 2.254300
616 1 18.985632 58.523088 4.061800
617 1 22.930806 50.193759 -6.783200
618 1 22.492422 51.947312 -4.975700
619 1 22.054066 53.700845 -3.168200
620 1 21.615739 55.454368 -1.360700
621 1 21.177395 57.207911 0.446800
622 1 20.738995 58.961482 2.254300
623 1 24.245879 52.385652 -6.783200
624 1 23.807531 54.139187 -4.975700
625 1 23.369180 55.892728 -3.168200
626 1 22.930806 57.646281 -1.360700
627 1 25.560976 54.577540 -6.783201
628 1 25.122612 56.331086 -4.975701
629 1 24.684241 58.084634 -3.168200
630 1 26.876051 56.769439 -6.783201
631 1 26.437689 58.522981 -4.975701
632 1 28.191136 58.961329 -6.783202
633 2 -0.289714 7.733931 -4.975703
634 2 0.877913 9.320702 -6.783202
635 2 0.877909 11.174344 -4.975702
636 2 0.877910 13.001427 -3.168202
637 2 -0.289714 15.186452 0.446797
638 1 2.756548 11.515562 -6.783201
639 1 2.420234 13.392000 -4.975701
640 1 2.045535 15.186445 -3.168201
641 2 0.877914 16.773224 -1.360702
642 2 0.877909 18.626866 0.446798
643 2 0.877909 20.453948 2.254298
644 2 -0.289714 22.638974 5.869297
645 1 4.116028 13.778118 -6.783200
646 1 3.649418 15.627637 -4.975701
647 1 3.111037 17.345411 -3.168200
648 1 2.756548 18.968083 -1.360701
649 1 2.420234 20.844521 0.446799
650 1 2.045535 22.638966 2.254299
651 2 0.877914 24.225746 4.061798
652 2 0.877908 26.079387 5.869298
653 1 5.372813 16.014924 -6.783200
654 1 4.964178 17.759174 -4.975700
655 1 4.530621 19.479704 -3.168200
656 1 4.116028 21.230640 -1.360700
657 1 3.649418 23.080159 0.446800
658 1 3.111036 24.797933 2.254300
659 1 2.756547 26.420605 4.061799
660 1 2.420234 28.297043 5.869299
661 1 6.722985 18.187117 -6.783199
662 1 6.288448 19.939702 -4.975699
663 1 5.824430 21.703787 -3.168200
664 1 5.372813 23.467445 -1.360700
665 1 4.964178 25.211695 0.446800
666 1 4.530620 26.932225 2.254300
667 1 4.116027 28.683161 4.061800
668 1 3.649418 30.532681 5.869300
669 1 8.026426 20.387535 -6.783199
670 1 7.576981 22.142665 -4.975699
671 1 7.144794 23.889502 -3.168199
672 1 6.722985 25.639639 -1.360699
673 1 6.288448 27.392223 0.446801
674 1 5.824430 29.156308 2.254300
675 1 5.372813 30.919967 4.061800
676 1 4.964177 32.664217 5.869300
677 1 9.338778 22.576602 -6.783199
678 1 8.906204 24.326094 -4.975699
679 1 8.471671 26.079767 -3.168199
680 1 8.026426 27.840057 -1.360699
681 1 7.576981 29.595187 0.446801
682 1 7.144794 31.342024 2.254301
683 1 6.722985 33.092160 4.061801
684 1 6.288448 34.844745 5.869301
685 1 10.659480 24.766268 -6.783199
686 1 10.218702 26.521805 -4.975699
687 1 9.776262 28.277388 -3.168199
688 1 9.338778 30.029124 -1.360699
689 1 8.906204 31.778615 0.446801
690 1 8.471671 33.532289 2.254301
691 1 8.026426 35.292578 4.061801
692 1 7.576981 37.047708 5.869301
693 1 11.970389 26.960575 -6.783199
694 1 11.531906 28.713660 -4.975699
695 1 11.096041 30.465745 -3.168199
696 1 10.659480 32.218790 -1.360699
697 1 10.218702 33.974326 0.446801
698 1 9.776262 35.729909 2.254301
699 1 9.338778 37.481645 4.061801
700 1 8.906205 39.231136 5.869301
701 1 13.287042 29.151179 -6.783199
702 1 12.849657 30.904427 -4.975699
703 1 12.410612 32.658704 -3.168199
704 1 11.970389 34.413096 -1.360699
705 1 11.531906 36.166182 0.446801
706 1 11.096041 37.918266 2.254301
707 1 10.659480 39.671311 4.061801
708 1 10.218702 41.426847 5.869301
709 1 14.602239 31.343374 -6.783199
710 1 14.163131 33.097333 -4.975699
711 1 13.724508 34.850796 -3.168199
712 1 13.287042 36.603701 -1.360699
713 1 12.849658 38.356949 0.446801
714 1 12.410613 40.111225 2.254301
715 1 11.970389 41.865617 4.061801
716 1 11.531907 43.618702 5.869301
717 1 15.916713 33.535460 -6.783199
718 1 15.478660 35.288761 -4.975699
719 1 15.040751 37.042119 -3.168199
720 1 14.602240 38.795896 -1.360699
721 1 14.163132 40.549854 0.446801
722 1 13.724509 42.303317 2.254301
723 1 13.287043 44.056221 4.061801
724 1 12.849658 45.809469 5.869301
725 1 17.232276 35.727091 -6.783199
726 1 16.793907 37.480701 -4.975699
727 1 16.355251 39.234421 -3.168199
728 1 15.916713 40.987981 -1.360699
729 1 15.478660 42.741282 0.446801
730 1 15.040752 44.494640 2.254301
731 1 14.602240 46.248417 4.061801
732 1 14.163132 48.002374 5.869301
733 1 18.547159 37.919141 -6.783199
734 1 18.108700 39.672709 -4.975699
735 1 17.670434 41.426163 -3.168199
736 1 17.232276 43.179613 -1.360699
737 1 16.793908 44.933223 0.446801
738 1 16.355251 46.686942 2.254301
739 1 15.916714 48.440502 4.061801
740 1 15.478661 50.193803 5.869301
741 1 19.862248 40.110991 -6.783199
742 1 19.423972 41.864489 -4.975699
743 1 18.985631 43.618047 -3.168199
744 1 18.547160 45.371663 -1.360699
745 1 18.108700 47.125231 0.446801
746 1 17.670435 48.878685 2.254301
747 1 17.232277 50.632134 4.061801
748 1 16.793908 52.385743 5.869301
749 1 21.177393 42.302868 -6.783200
750 1 20.738994 44.056440 -4.975700
751 1 20.300584 45.810000 -3.168199
752 1 19.862248 47.563512 -1.360699
753 1 19.423973 49.317010 0.446800
754 1 18.985631 51.070568 2.254301
755 1 18.547160 52.824184 4.061801
756 1 18.108701 54.577751 5.869301
757 1 22.492422 44.494790 -6.783200
758 1 22.054065 46.248323 -4.975700
759 1 21.615739 48.001846 -3.168200
760 1 21.177394 49.755390 -1.360700
761 1 20.738994 51.508961 0.446800
762 1 20.300585 53.262521 2.254301
763 1 19.862249 55.016033 4.061801
764 1 19.423973 56.769531 5.869300
765 1 23.807530 46.686665 -6.783200
766 1 23.369179 48.440206 -4.975700
767 1 22.930806 50.193759 -3.168200
768 1 22.492422 51.947312 -1.360700
769 1 22.054066 53.700845 0.446800
770 1 21.615739 55.454368 2.254300
771 1 21.177395 57.207911 4.061800
772 1 20.738995 58.961482 5.869300
773 1 25.122611 48.878565 -6.783201
774 1 24.684240 50.632112 -4.975700
775 1 24.245879 52.385652 -3.168200
776 1 23.807531 54.139187 -1.360700
777 1 23.369180 55.892728 0.446800
778 1 22.930806 57.646281 2.254300
779 1 26.437688 51.070459 -6.783201
780 1 25.999332 52.823999 -4.975701
781 1 25.560976 54.577540 -3.168201
782 1 25.122612 56.331086 -1.360701
783 1 24.684241 58.084634 0.446800
784 1 27.752777 53.262350 -6.783202
785 1 27.314416 55.015894 -4.975702
786 1 26.876051 56.769439 -3.168201
787 1 26.437689 58.522981 -1.360701
788 1 29.067858 55.454245 -6.783202
789 1 28.629496 57.207788 -4.975702
790 1 28.191136 58.961329 -3.168202
791 1 30.382941 57.646138 -6.783203
792 2 0.877909 3.721822 -6.783202
793 2 0.877910 5.548905 -4.975702
794 2 -0.289714 7.733931 -1.360703
795 1 2.420234 5.939478 -6.783201
796 1 2.045536 7.733923 -4.975701
797 2 0.877913 9.320702 -3.168202
798 2 0.877909 11.174344 -1.360702
799 2 0.877910 13.001427 0.446798
800 2 -0.289714 15.186452 4.061797
801 1 3.649418 8.175116 -6.783201
802 1 3.111037 9.892889 -4.975700
803 1 2.756548 11.515562 -3.168201
804 1 2.420234 13.392000 -1.360701
805 1 2.045535 15.186445 0.446799
806 2 0.877914 16.773224 2.254298
807 2 0.877909 18.626866 4.061798
808 2 0.877909 20.453948 5.869298
809 1 4.964178 10.306652 -6.783200
810 1 4.530621 12.027182 -4.975700
811 1 4.116028 13.778118 -3.168200
812 1 3.649418 15.627637 -1.360701
813 1 3.111037 17.345411 0.446800
814 1 2.756548 18.968083 2.254299
815 1 2.420234 20.844521 4.061799
816 1 2.045535 22.638966 5.869299
817 1 6.288448 12.487180 -6.783199
818 1 5.824430 14.251265 -4.975700
819 1 5.372813 16.014924 -3.168200
820 1 4.964178 17.759174 -1.360700
821 1 4.530621 19.479704 0.446800
822 1 4.116028 21.230640 2.254300
823 1 3.649418 23.080159 4.061800
824 1 3.111036 24.797933 5.869300
825 1 7.576981 14.690143 -6.783199
826 1 7.144794 16.436980 -4.975699
827 1 6.722985 18.187117 -3.168199
828 1 6.288448 19.939702 -1.360699
829 1 5.824430 21.703787 0.446800
830 1 5.372813 23.467445 2.254300
831 1 4.964178 25.211695 4.061800
832 1 4.530620 26.932225 5.869300
833 1 8.906204 16.873572 -6.783199
834 1 8.471671 18.627246 -4.975699
835 1 8.026426 20.387535 -3.168199
836 1 7.576981 22.142665 -1.360699
837 1 7.144794 23.889502 0.446801
838 1 6.722985 25.639639 2.254301
839 1 6.288448 27.392223 4.061801
840 1 5.824430 29.156308 5.869300
841 1 10.218701 19.069283 -6.783199
842 1 9.776262 20.824866 -4.975699
843 1 9.338778 22.576602 -3.168199
844 1 8.906204 24.326094 -1.360699
845 1 8.471671 26.079767 0.446801
846 1 8.026426 27.840057 2.254301
847 1 7.576981 29.595187 4.061801
848 1 7.144794 31.342024 5.869301
849 1 11.531906 21.261138 -6.783199
850 1 11.096041 23.013223 -4.975699
851 1 10.659480 24.766268 -3.168199
852 1 10.218702 26.521805 -1.360699
853 1 9.776262 28.277388 0.446801
854 1 9.338778 30.029124 2.254301