#LAMMPS data file
29248 atoms
2 atom types
-125.2250000000 125.2250000000 xlo xhi
-59.6201706000 59.6201706000 ylo yhi
-7.2300000000 7.2300000000 zlo zhi
0.0 0.0 0.0 xy xz yz

Atoms # atomic

1 1 0.664421 58.108126 -6.775259
2 1 0.289722 52.450049 -6.775259
3 1 1.355225 54.609015 -6.775260
4 1 1.000737 56.231688 -4.967760
5 1 0.664421 58.108126 -3.160259
6 1 2.774810 56.743310 -6.775260
7 1 2.360216 58.494245 -4.967760
8 1 4.068619 58.967393 -6.775260
9 1 1.000737 48.779166 -6.775260
10 1 0.664421 50.655604 -4.967759
11 1 0.289722 52.450049 -3.160259
12 1 2.360216 51.041724 -6.775260
13 1 1.893606 52.891243 -4.967760
14 1 1.355225 54.609015 -3.160260
15 1 1.000737 56.231688 -1.352760
16 1 0.664421 58.108126 0.454741
17 1 3.617002 53.278530 -6.775260
18 1 3.208367 55.022780 -4.967760
19 1 2.774810 56.743310 -3.160260
20 1 2.360216 58.494245 -1.352760
21 1 4.967175 55.450725 -6.775260
22 1 4.532638 57.203309 -4.967760
23 1 4.068619 58.967393 -3.160260
24 1 6.270616 57.651144 -6.775260
25 1 5.821171 59.406274 -4.967760
26 1 0.664421 43.203083 -6.775259
27 1 0.289722 44.997528 -4.967759
28 1 1.893606 45.438721 -6.775260
29 1 1.355225 47.156494 -4.967760
30 1 1.000737 48.779166 -3.160260
31 1 0.664421 50.655604 -1.352759
32 1 0.289722 52.450049 0.454741
33 1 3.208367 47.570258 -6.775260
34 1 2.774810 49.290789 -4.967760
35 1 2.360216 51.041724 -3.160260
36 1 1.893606 52.891243 -1.352760
37 1 1.355225 54.609015 0.454740
38 1 1.000737 56.231688 2.262240
39 1 0.664421 58.108126 4.069741
40 1 4.532638 49.750788 -6.775260
41 1 4.068619 51.514872 -4.967760
42 1 3.617002 53.278530 -3.160260
43 1 3.208367 55.022780 -1.352760
44 1 2.774810 56.743310 0.454740
45 1 2.360216 58.494245 2.262240
46 1 5.821171 51.953752 -6.775260
47 1 5.388984 53.700589 -4.967760
48 1 4.967175 55.450725 -3.160260
49 1 4.532638 57.203309 -1.352760
50 1 4.068619 58.967393 0.454740
51 1 7.150395 54.137182 -6.775260
52 1 6.715862 55.890855 -4.967760
53 1 6.270616 57.651144 -3.160260
54 1 5.821171 59.406274 -1.352760
55 1 8.462893 56.332895 -6.775261
56 1 8.020453 58.088477 -4.967761
57 1 9.776098 58.524751 -6.775261
58 1 0.289722 37.545007 -6.775259
59 1 1.355225 39.703973 -6.775260
60 1 1.000737 41.326645 -4.967760
61 1 0.664421 43.203083 -3.160259
62 1 0.289722 44.997528 -1.352759
63 1 2.774810 41.838267 -6.775260
64 1 2.360216 43.589203 -4.967760
65 1 1.893606 45.438721 -3.160260
66 1 1.355225 47.156494 -1.352760
67 1 1.000737 48.779166 0.454740
68 1 0.664421 50.655604 2.262240
69 1 0.289722 52.450049 4.069741
70 1 4.068619 44.062351 -6.775260
71 1 3.617002 45.826009 -4.967760
72 1 3.208367 47.570258 -3.160260
73 1 2.774810 49.290789 -1.352760
74 1 2.360216 51.041724 0.454740
75 1 1.893606 52.891243 2.262240
76 1 1.355225 54.609015 4.069740
77 1 1.000737 56.231688 5.877240
78 1 5.388984 46.248067 -6.775260
79 1 4.967175 47.998204 -4.967760
80 1 4.532638 49.750788 -3.160260
81 1 4.068619 51.514872 -1.352760
82 1 3.617002 53.278530 0.454740
83 1 3.208367 55.022780 2.262240
84 1 2.774810 56.743310 4.069740
85 1 2.360216 58.494245 5.877240
86 1 6.715862 48.438334 -6.775260
87 1 6.270616 50.198623 -4.967760
88 1 5.821171 51.953752 -3.160260
89 1 5.388984 53.700589 -1.352760
90 1 4.967175 55.450725 0.454740
91 1 4.532638 57.203309 2.262240
92 1 4.068619 58.967393 4.069740
93 1 8.020453 50.635956 -6.775261
94 1 7.582969 52.387691 -4.967761
95 1 7.150395 54.137182 -3.160260
96 1 6.715862 55.890855 -1.352760
97 1 6.270616 57.651144 0.454740
98 1 5.821171 59.406274 2.262240
99 1 9.340233 52.824314 -6.775261
100 1 8.903671 54.577359 -4.967761
101 1 8.462893 56.332895 -3.160261
102 1 8.020453 58.088477 -1.352761
103 1 10.654804 55.017275 -6.775261
104 1 10.214581 56.771667 -4.967761
105 1 9.776098 58.524751 -3.160261
106 1 11.968701 57.209369 -6.775261
107 1 11.531235 58.962273 -4.967761
108 1 13.284944 59.400694 -6.775261
109 1 1.000737 33.874124 -6.775260
110 1 0.664421 35.750562 -4.967759
111 1 0.289722 37.545007 -3.160259
112 1 2.360216 36.136681 -6.775260
113 1 1.893606 37.986200 -4.967760
114 1 1.355225 39.703973 -3.160260
115 1 1.000737 41.326645 -1.352760
116 1 0.664421 43.203083 0.454741
117 1 0.289722 44.997528 2.262241
118 1 3.617002 38.373488 -6.775260
119 1 3.208367 40.117737 -4.967760
120 1 2.774810 41.838267 -3.160260
121 1 2.360216 43.589203 -1.352760
122 1 1.893606 45.438721 0.454740
123 1 1.355225 47.156494 2.262240
124 1 1.000737 48.779166 4.069740
125 1 0.664421 50.655604 5.877241
126 1 4.967175 40.545682 -6.775260
127 1 4.532638 42.298266 -4.967760
128 1 4.068619 44.062351 -3.160260
129 1 3.617002 45.826009 -1.352760
130 1 3.208367 47.570258 0.454740
131 1 2.774810 49.290789 2.262240
132 1 2.360216 51.041724 4.069740
133 1 1.893606 52.891243 5.877240
134 1 6.270616 42.746101 -6.775260
135 1 5.821171 44.501231 -4.967760
136 1 5.388984 46.248067 -3.160260
137 1 4.967175 47.998204 -1.352760
138 1 4.532638 49.750788 0.454740
139 1 4.068619 51.514872 2.262240
140 1 3.617002 53.278530 4.069740
141 1 3.208367 55.022780 5.877240
142 1 7.582969 44.935170 -6.775261
143 1 7.150395 46.684661 -4.967760
144 1 6.715862 48.438334 -3.160260
145 1 6.270616 50.198623 -1.352760
146 1 5.821171 51.953752 0.454740
147 1 5.388984 53.700589 2.262240
148 1 4.967175 55.450725 4.069740
149 1 4.532638 57.203309 5.877240
150 1 8.903671 47.124837 -6.775261
151 1 8.462893 48.880373 -4.967761
152 1 8.020453 50.635956 -3.160261
153 1 7.582969 52.387691 -1.352761
154 1 7.150395 54.137182 0.454740
155 1 6.715862 55.890855 2.262240
156 1 6.270616 57.651144 4.069740
157 1 5.821171 59.406274 5.877240
158 1 10.214581 49.319146 -6.775261
159 1 9.776098 51.072230 -4.967761
160 1 9.340233 52.824314 -3.160261
161 1 8.903671 54.577359 -1.352761
162 1 8.462893 56.332895 0.454739
163 1 8.020453 58.088477 2.262239
164 1 11.531235 51.509751 -6.775261
165 1 11.093850 53.262999 -4.967761
166 1 10.654804 55.017275 -3.160261
167 1 10.214581 56.771667 -1.352761
168 1 9.776098 58.524751 0.454739
169 1 12.846432 53.701949 -6.775261
170 1 12.407324 55.455906 -4.967761
171 1 11.968701 57.209369 -3.160261
172 1 11.531235 58.962273 -1.352761
173 1 14.160907 55.894036 -6.775262
174 1 13.722853 57.647336 -4.967762
175 1 13.284944 59.400694 -3.160261
176 1 15.476470 58.085670 -6.775262
177 1 0.664421 28.298040 -6.775259
178 1 0.289722 30.092485 -4.967759
179 1 1.893606 30.533679 -6.775260
180 1 1.355225 32.251451 -4.967760
181 1 1.000737 33.874124 -3.160260
182 1 0.664421 35.750562 -1.352759
183 1 0.289722 37.545007 0.454741
184 1 3.208367 32.665216 -6.775260
185 1 2.774810 34.385746 -4.967760
186 1 2.360216 36.136681 -3.160260
187 1 1.893606 37.986200 -1.352760
188 1 1.355225 39.703973 0.454740
189 1 1.000737 41.326645 2.262240
190 1 0.664421 43.203083 4.069740
191 1 0.289722 44.997528 5.877241
192 1 4.532638 34.845745 -6.775260
193 1 4.068619 36.609829 -4.967760
194 1 3.617002 38.373488 -3.160260
195 1 3.208367 40.117737 -1.352760
196 1 2.774810 41.838267 0.454740
197 1 2.360216 43.589203 2.262240
198 1 1.893606 45.438721 4.069740
199 1 1.355225 47.156494 5.877240
200 1 5.821171 37.048710 -6.775260
201 1 5.388984 38.795546 -4.967760
202 1 4.967175 40.545682 -3.160260
203 1 4.532638 42.298266 -1.352760
204 1 4.068619 44.062351 0.454740
205 1 3.617002 45.826009 2.262240
206 1 3.208367 47.570258 4.069740
207 1 2.774810 49.290789 5.877240
208 1 7.150395 39.232139 -6.775260
209 1 6.715862 40.985813 -4.967760
210 1 6.270616 42.746101 -3.160260
211 1 5.821171 44.501231 -1.352760
212 1 5.388984 46.248067 0.454740
213 1 4.967175 47.998204 2.262240
214 1 4.532638 49.750788 4.069740
215 1 4.068619 51.514872 5.877240
216 1 8.462893 41.427852 -6.775261
217 1 8.020453 43.183434 -4.967761
218 1 7.582969 44.935170 -3.160261
219 1 7.150395 46.684661 -1.352760
220 1 6.715862 48.438334 0.454740
221 1 6.270616 50.198623 2.262240
222 1 5.821171 51.953752 4.069740
223 1 5.388984 53.700589 5.877240
224 1 9.776098 43.619709 -6.775261
225 1 9.340233 45.371793 -4.967761
226 1 8.903671 47.124837 -3.160261
227 1 8.462893 48.880373 -1.352761
228 1 8.020453 50.635956 0.454739
229 1 7.582969 52.387691 2.262239
230 1 7.150395 54.137182 4.069740
231 1 6.715862 55.890855 5.877240
232 1 11.093850 45.810478 -6.775261
233 1 10.654804 47.564754 -4.967761
234 1 10.214581 49.319146 -3.160261
235 1 9.776098 51.072230 -1.352761
236 1 9.340233 52.824314 0.454739
237 1 8.903671 54.577359 2.262239
238 1 8.462893 56.332895 4.069739
239 1 8.020453 58.088477 5.877239
240 1 12.407324 48.003385 -6.775261
241 1 11.968701 49.756847 -4.967761
242 1 11.531235 51.509751 -3.160261
243 1 11.093850 53.262999 -1.352761
244 1 10.654804 55.017275 0.454739
245 1 10.214581 56.771667 2.262239
246 1 9.776098 58.524751 4.069739
247 1 13.722853 50.194815 -6.775262
248 1 13.284944 51.948172 -4.967761
249 1 12.846432 53.701949 -3.160261
250 1 12.407324 55.455906 -1.352761
251 1 11.968701 57.209369 0.454739
252 1 11.531235 58.962273 2.262239
253 1 15.038101 52.386758 -6.775262
254 1 14.599444 54.140476 -4.967762
255 1 14.160907 55.894036 -3.160262
256 1 13.722853 57.647336 -1.352762
257 1 13.284944 59.400694 0.454739
258 1 16.352895 54.578767 -6.775262
259 1 15.914629 56.332221 -4.967762
260 1 15.476470 58.085670 -3.160262
261 1 17.668168 56.770549 -6.775262
262 1 17.229826 58.524106 -4.967762
263 1 18.983190 58.962502 -6.775262
264 1 0.289722 22.639964 -6.775259
265 1 1.355225 24.798930 -6.775260
266 1 1.000737 26.421602 -4.967760
267 1 0.664421 28.298040 -3.160259
268 1 0.289722 30.092485 -1.352759
269 1 2.774810 26.933225 -6.775260
270 1 2.360216 28.684160 -4.967760
271 1 1.893606 30.533679 -3.160260
272 1 1.355225 32.251451 -1.352760
273 1 1.000737 33.874124 0.454740
274 1 0.664421 35.750562 2.262241
275 1 0.289722 37.545007 4.069741
276 1 4.068619 29.157308 -6.775260
277 1 3.617002 30.920966 -4.967760
278 1 3.208367 32.665216 -3.160260
279 1 2.774810 34.385746 -1.352760
280 1 2.360216 36.136682 0.454740
281 1 1.893606 37.986200 2.262240
282 1 1.355225 39.703973 4.069740
283 1 1.000737 41.326645 5.877240
284 1 5.388984 31.343025 -6.775260
285 1 4.967175 33.093161 -4.967760
286 1 4.532638 34.845745 -3.160260
287 1 4.068619 36.609829 -1.352760
288 1 3.617002 38.373488 0.454740
289 1 3.208367 40.117737 2.262240
290 1 2.774810 41.838267 4.069740
291 1 2.360216 43.589203 5.877240
292 1 6.715862 33.533291 -6.775260
293 1 6.270616 35.293580 -4.967760
294 1 5.821171 37.048710 -3.160260
295 1 5.388984 38.795546 -1.352760
296 1 4.967175 40.545682 0.454740
297 1 4.532638 42.298266 2.262240
298 1 4.068619 44.062351 4.069740
299 1 3.617002 45.826009 5.877240
300 1 8.020453 35.730913 -6.775261
301 1 7.582969 37.482648 -4.967761
302 1 7.150395 39.232139 -3.160260
303 1 6.715862 40.985813 -1.352760
304 1 6.270616 42.746101 0.454740
305 1 5.821171 44.501231 2.262240
306 1 5.388984 46.248067 4.069740
307 1 4.967175 47.998204 5.877240
308 1 9.340233 37.919271 -6.775261
309 1 8.903671 39.672316 -4.967761
310 1 8.462893 41.427852 -3.160261
311 1 8.020453 43.183434 -1.352761
312 1 7.582969 44.935170 0.454739
313 1 7.150395 46.684661 2.262240
314 1 6.715862 48.438334 4.069740
315 1 6.270616 50.198623 5.877240
316 1 10.654804 40.112232 -6.775261
317 1 10.214581 41.866624 -4.967761
318 1 9.776098 43.619709 -3.160261
319 1 9.340233 45.371793 -1.352761
320 1 8.903671 47.124837 0.454739
321 1 8.462893 48.880373 2.262239
322 1 8.020453 50.635956 4.069739
323 1 7.582969 52.387691 5.877239
324 1 11.968701 42.304326 -6.775261
325 1 11.531235 44.057230 -4.967761
326 1 11.093850 45.810478 -3.160261
327 1 10.654804 47.564754 -1.352761
328 1 10.214581 49.319146 0.454739
329 1 9.776098 51.072230 2.262239
330 1 9.340233 52.824314 4.069739
331 1 8.903671 54.577359 5.877239
332 1 13.284944 44.495651 -6.775261
333 1 12.846432 46.249427 -4.967761
334 1 12.407324 48.003385 -3.160261
335 1 11.968701 49.756847 -1.352761
336 1 11.531235 51.509751 0.454739
337 1 11.093850 53.262999 2.262239
338 1 10.654804 55.017275 4.069739
339 1 10.214581 56.771667 5.877239
340 1 14.599444 46.687955 -6.775262
341 1 14.160907 48.441514 -4.967762
342 1 13.722853 50.194815 -3.160262
343 1 13.284944 51.948172 -1.352761
344 1 12.846432 53.701949 0.454739
345 1 12.407324 55.455906 2.262239
346 1 11.968701 57.209369 4.069739
347 1 11.531235 58.962273 5.877239
348 1 15.914629 48.879700 -6.775262
349 1 15.476470 50.633148 -4.967762
350 1 15.038101 52.386758 -3.160262
351 1 14.599444 54.140476 -1.352762
352 1 14.160907 55.894036 0.454738
353 1 13.722853 57.647336 2.262238
354 1 13.284944 59.400694 4.069739
355 1 17.229826 51.071585 -6.775262
356 1 16.791354 52.825200 -4.967762
357 1 16.352895 54.578767 -3.160262
358 1 15.914629 56.332221 -1.352762
359 1 15.476470 58.085670 0.454738
360 1 18.544780 53.263540 -6.775262
361 1 18.106443 55.017052 -4.967762
362 1 17.668168 56.770549 -3.160262
363 1 17.229826 58.524106 -1.352762
364 1 19.859934 55.455388 -6.775262
365 1 19.421590 57.208931 -4.967762
366 1 18.983190 58.962502 -3.160262
367 1 21.175002 57.647303 -6.775262
368 1 20.736619 59.400855 -4.967762
369 1 1.000737 18.969081 -6.775260
370 1 0.664421 20.845519 -4.967759
371 1 0.289722 22.639964 -3.160259
372 1 2.360216 21.231639 -6.775260
373 1 1.893606 23.081157 -4.967760
374 1 1.355225 24.798930 -3.160260
375 1 1.000737 26.421602 -1.352760
376 1 0.664421 28.298040 0.454741
377 1 0.289722 30.092485 2.262241
378 1 3.617002 23.468445 -6.775260
379 1 3.208367 25.212694 -4.967760
380 1 2.774810 26.933225 -3.160260
381 1 2.360216 28.684160 -1.352760
382 1 1.893606 30.533679 0.454740
383 1 1.355225 32.251451 2.262240
384 1 1.000737 33.874124 4.069740
385 1 0.664421 35.750562 5.877241
386 1 4.967175 25.640640 -6.775260
387 1 4.532638 27.393224 -4.967760
388 1 4.068619 29.157308 -3.160260
389 1 3.617002 30.920966 -1.352760
390 1 3.208367 32.665216 0.454740
391 1 2.774810 34.385746 2.262240
392 1 2.360216 36.136681 4.069740
393 1 1.893606 37.986200 5.877240
394 1 6.270616 27.841059 -6.775260
395 1 5.821171 29.596188 -4.967760
396 1 5.388984 31.343025 -3.160260
397 1 4.967175 33.093161 -1.352760
398 1 4.532638 34.845745 0.454740
399 1 4.068619 36.609829 2.262240
400 1 3.617002 38.373488 4.069740
401 1 3.208367 40.117737 5.877240
402 1 7.582969 30.030127 -6.775261
403 1 7.150395 31.779618 -4.967760
404 1 6.715862 33.533291 -3.160260
405 1 6.270616 35.293580 -1.352760
406 1 5.821171 37.048710 0.454740
407 1 5.388984 38.795546 2.262240
408 1 4.967175 40.545682 4.069740
409 1 4.532638 42.298266 5.877240
410 1 8.903671 32.219795 -6.775261
411 1 8.462893 33.975331 -4.967761
412 1 8.020453 35.730913 -3.160261
413 1 7.582969 37.482648 -1.352761
414 1 7.150395 39.232139 0.454740
415 1 6.715862 40.985813 2.262240
416 1 6.270616 42.746101 4.069740
417 1 5.821171 44.501231 5.877240
418 1 10.214581 34.414103 -6.775261
419 1 9.776098 36.167187 -4.967761
420 1 9.340233 37.919271 -3.160261
421 1 8.903671 39.672316 -1.352761
422 1 8.462893 41.427852 0.454739
423 1 8.020453 43.183434 2.262239
424 1 7.582969 44.935170 4.069739
425 1 7.150395 46.684661 5.877240
426 1 11.531235 36.604709 -6.775261
427 1 11.093850 38.357956 -4.967761
428 1 10.654804 40.112232 -3.160261
429 1 10.214581 41.866624 -1.352761
430 1 9.776098 43.619709 0.454739
431 1 9.340233 45.371793 2.262239
432 1 8.903671 47.124837 4.069739
433 1 8.462893 48.880373 5.877239
434 1 12.846433 38.796906 -6.775261
435 1 12.407324 40.550863 -4.967761
436 1 11.968701 42.304326 -3.160261
437 1 11.531235 44.057230 -1.352761
438 1 11.093850 45.810478 0.454739
439 1 10.654804 47.564754 2.262239
440 1 10.214581 49.319146 4.069739
441 1 9.776098 51.072230 5.877239
442 1 14.160907 40.988993 -6.775262
443 1 13.722853 42.742294 -4.967762
444 1 13.284944 44.495651 -3.160261
445 1 12.846432 46.249427 -1.352761
446 1 12.407324 48.003385 0.454739
447 1 11.968701 49.756847 2.262239
448 1 11.531235 51.509751 4.069739
449 1 11.093850 53.262999 5.877239
450 1 15.476470 43.180627 -6.775262
451 1 15.038101 44.934236 -4.967762
452 1 14.599444 46.687955 -3.160262
453 1 14.160907 48.441514 -1.352762
454 1 13.722853 50.194815 0.454738
455 1 13.284944 51.948172 2.262239
456 1 12.846432 53.701949 4.069739
457 1 12.407324 55.455906 5.877239
458 1 16.791354 45.372679 -6.775262
459 1 16.352895 47.126246 -4.967762
460 1 15.914629 48.879700 -3.160262
461 1 15.476470 50.633148 -1.352762
462 1 15.038101 52.386758 0.454738
463 1 14.599444 54.140476 2.262238
464 1 14.160907 55.894036 4.069738
465 1 13.722853 57.647336 5.877238
466 1 18.106443 47.564530 -6.775262
467 1 17.668168 49.318028 -4.967762
468 1 17.229826 51.071585 -3.160262
469 1 16.791354 52.825200 -1.352762
470 1 16.352895 54.578767 0.454738
471 1 15.914629 56.332221 2.262238
472 1 15.476470 58.085670 4.069738
473 1 19.421590 49.756410 -6.775262
474 1 18.983190 51.509980 -4.967762
475 1 18.544780 53.263540 -3.160262
476 1 18.106443 55.017052 -1.352762
477 1 17.668168 56.770549 0.454738
478 1 17.229826 58.524106 2.262238
479 1 20.736619 51.948333 -6.775262
480 1 20.298261 53.701866 -4.967762
481 1 19.859934 55.455388 -3.160262
482 1 19.421590 57.208931 -1.352762
483 1 18.983190 58.962502 0.454738
484 1 22.051727 54.140210 -6.775262
485 1 21.613376 55.893750 -4.967763
486 1 21.175002 57.647303 -3.160262
487 1 20.736619 59.400855 -1.352762
488 1 23.366808 56.332112 -6.775263
489 1 22.928438 58.085658 -4.967763
490 1 24.681886 58.524008 -6.775263
491 1 0.664421 13.392998 -6.775259
492 1 0.289722 15.187443 -4.967759
493 1 1.893606 15.628636 -6.775260
494 1 1.355225 17.346409 -4.967760
495 1 1.000737 18.969081 -3.160260
496 1 0.664421 20.845519 -1.352759
497 1 0.289722 22.639964 0.454741
498 1 3.208367 17.760173 -6.775260
499 1 2.774810 19.480703 -4.967760
500 1 2.360216 21.231639 -3.160260
501 1 1.893606 23.081157 -1.352760
502 1 1.355225 24.798930 0.454740
503 1 1.000737 26.421602 2.262240
504 1 0.664421 28.298040 4.069740
505 1 0.289722 30.092485 5.877241
506 1 4.532638 19.940702 -6.775260
507 1 4.068619 21.704787 -4.967760
508 1 3.617002 23.468445 -3.160260
509 1 3.208367 25.212694 -1.352760
510 1 2.774810 26.933225 0.454740
511 1 2.360216 28.684160 2.262240
512 1 1.893606 30.533679 4.069740
513 1 1.355225 32.251451 5.877240
514 1 5.821171 22.143667 -6.775260
515 1 5.388984 23.890503 -4.967760
516 1 4.967175 25.640640 -3.160260
517 1 4.532638 27.393224 -1.352760
518 1 4.068619 29.157308 0.454740
519 1 3.617002 30.920966 2.262240
520 1 3.208367 32.665216 4.069740
521 1 2.774810 34.385746 5.877240
522 1 7.150395 24.327097 -6.775260
523 1 6.715862 26.080770 -4.967760
524 1 6.270616 27.841059 -3.160260
525 1 5.821171 29.596188 -1.352760
526 1 5.388984 31.343025 0.454740
527 1 4.967175 33.093161 2.262240
528 1 4.532638 34.845745 4.069740
529 1 4.068619 36.609829 5.877240
530 1 8.462893 26.522809 -6.775261
531 1 8.020453 28.278392 -4.967761
532 1 7.582969 30.030127 -3.160261
533 1 7.150395 31.779618 -1.352760
534 1 6.715862 33.533291 0.454740
535 1 6.270616 35.293580 2.262240
536 1 5.821171 37.048710 4.069740
537 1 5.388984 38.795546 5.877240
538 1 9.776098 28.714666 -6.775261
539 1 9.340233 30.466750 -4.967761
540 1 8.903671 32.219795 -3.160261
541 1 8.462893 33.975331 -1.352761
542 1 8.020453 35.730913 0.454739
543 1 7.582969 37.482648 2.262239
544 1 7.150395 39.232139 4.069740
545 1 6.715862 40.985813 5.877240
546 1 11.093850 30.905435 -6.775261
547 1 10.654804 32.659711 -4.967761
548 1 10.214581 34.414103 -3.160261
549 1 9.776098 36.167187 -1.352761
550 1 9.340233 37.919271 0.454739
551 1 8.903671 39.672316 2.262239
552 1 8.462893 41.427852 4.069739
553 1 8.020453 43.183434 5.877239
554 1 12.407324 33.098342 -6.775261
555 1 11.968701 34.851805 -4.967761
556 1 11.531235 36.604709 -3.160261
557 1 11.093850 38.357956 -1.352761
558 1 10.654804 40.112232 0.454739
559 1 10.214581 41.866624 2.262239
560 1 9.776098 43.619709 4.069739
561 1 9.340233 45.371793 5.877239
562 1 13.722853 35.289772 -6.775262
563 1 13.284944 37.043130 -4.967761
564 1 12.846433 38.796906 -3.160261
565 1 12.407324 40.550863 -1.352761
566 1 11.968701 42.304326 0.454739
567 1 11.531235 44.057230 2.262239
568 1 11.093850 45.810478 4.069739
569 1 10.654804 47.564754 5.877239
570 1 15.038101 37.481715 -6.775262
571 1 14.599445 39.235433 -4.967762
572 1 14.160907 40.988993 -3.160262
573 1 13.722853 42.742294 -1.352762
574 1 13.284944 44.495651 0.454739
575 1 12.846432 46.249427 2.262239
576 1 12.407324 48.003385 4.069739
577 1 11.968701 49.756847 5.877239
578 1 16.352895 39.673725 -6.775262
579 1 15.914629 41.427178 -4.967762
580 1 15.476470 43.180627 -3.160262
581 1 15.038101 44.934236 -1.352762
582 1 14.599444 46.687955 0.454738
583 1 14.160907 48.441514 2.262238
584 1 13.722853 50.194815 4.069738
585 1 13.284944 51.948172 5.877239
586 1 17.668168 41.865507 -6.775262
587 1 17.229826 43.619064 -4.967762
588 1 16.791354 45.372679 -3.160262
589 1 16.352895 47.126246 -1.352762
590 1 15.914629 48.879700 0.454738
591 1 15.476470 50.633148 2.262238
592 1 15.038101 52.386758 4.069738
593 1 14.599444 54.140476 5.877238
594 1 18.983190 44.057459 -6.775262
595 1 18.544780 45.811018 -4.967762
596 1 18.106443 47.564530 -3.160262
597 1 17.668168 49.318028 -1.352762
598 1 17.229826 51.071585 0.454738
599 1 16.791354 52.825200 2.262238
600 1 16.352895 54.578767 4.069738
601 1 15.914629 56.332221 5.877238
602 1 20.298261 46.249345 -6.775262
603 1 19.859935 48.002867 -4.967762
604 1 19.421590 49.756410 -3.160262
605 1 18.983190 51.509980 -1.352762
606 1 18.544780 53.263540 0.454738
607 1 18.106443 55.017052 2.262238
608 1 17.668168 56.770549 4.069738
609 1 17.229826 58.524106 5.877238
610 1 21.613376 48.441229 -6.775263
611 1 21.175002 50.194782 -4.967762
612 1 20.736619 51.948333 -3.160262
613 1 20.298261 53.701866 -1.352762
614 1 19.859934 55.455388 0.454738
615 1 19.421590 57.208931 2.262238
616 1 18.983190 58.962502 4.069738
617 1 22.928438 50.633137 -6.775263
618 1 22.490075 52.386676 -4.967763
619 1 22.051727 54.140210 -3.160262
620 1 21.613376 55.893750 -1.352763
621 1 21.175002 57.647303 0.454738
622 1 20.736619 59.400855 2.262238
623 1 24.243529 52.825025 -6.775263
624 1 23.805173 54.578566 -4.967763
625 1 23.366808 56.332112 -3.160263
626 1 22.928438 58.085658 -1.352763
627 1 25.558614 55.016922 -6.775263
628 1 25.120249 56.770466 -4.967763
629 1 24.681886 58.524008 -3.160263
630 1 26.873694 57.208818 -6.775263
631 1 26.435335 58.962359 -4.967763
632 1 28.188781 59.400712 -6.775263
633 1 0.289722 7.734921 -6.775259
634 1 1.355225 9.893887 -6.775260
635 1 1.000737 11.516560 -4.967760
636 1 0.664421 13.392998 -3.160259
637 1 0.289722 15.187443 -1.352759
638 1 2.774810 12.028182 -6.775260
639 1 2.360216 13.779118 -4.967760
640 1 1.893606 15.628636 -3.160260
641 1 1.355225 17.346409 -1.352760
642 1 1.000737 18.969081 0.454740
643 1 0.664421 20.845519 2.262240
644 1 0.289722 22.639964 4.069741
645 1 4.068619 14.252265 -6.775260
646 1 3.617002 16.015924 -4.967760
647 1 3.208367 17.760173 -3.160260
648 1 2.774810 19.480703 -1.352760
649 1 2.360216 21.231639 0.454740
650 1 1.893606 23.081157 2.262240
651 1 1.355225 24.798930 4.069740
652 1 1.000737 26.421602 5.877240
653 1 5.388984 16.437982 -6.775260
654 1 4.967175 18.188118 -4.967760
655 1 4.532638 19.940702 -3.160260
656 1 4.068619 21.704787 -1.352760
657 1 3.617002 23.468445 0.454740
658 1 3.208367 25.212694 2.262240
659 1 2.774810 26.933225 4.069740
660 1 2.360216 28.684160 5.877240
661 1 6.715862 18.628249 -6.775260
662 1 6.270616 20.388537 -4.967760
663 1 5.821171 22.143667 -3.160260
664 1 5.388984 23.890503 -1.352760
665 1 4.967175 25.640640 0.454740
666 1 4.532638 27.393224 2.262240
667 1 4.068619 29.157308 4.069740
668 1 3.617002 30.920966 5.877240
669 1 8.020453 20.825870 -6.775261
670 1 7.582969 22.577606 -4.967761
671 1 7.150395 24.327097 -3.160260
672 1 6.715862 26.080770 -1.352760
673 1 6.270616 27.841059 0.454740
674 1 5.821171 29.596188 2.262240
675 1 5.388984 31.343025 4.069740
676 1 4.967175 33.093161 5.877240
677 1 9.340233 23.014229 -6.775261
678 1 8.903671 24.767273 -4.967761
679 1 8.462893 26.522809 -3.160261
680 1 8.020453 28.278392 -1.352761
681 1 7.582969 30.030127 0.454739
682 1 7.150395 31.779618 2.262240
683 1 6.715862 33.533291 4.069740
684 1 6.270616 35.293580 5.877240
685 1 10.654804 25.207190 -6.775261
686 1 10.214581 26.961582 -4.967761
687 1 9.776098 28.714666 -3.160261
688 1 9.340233 30.466750 -1.352761
689 1 8.903671 32.219795 0.454739
690 1 8.462893 33.975331 2.262239
691 1 8.020453 35.730913 4.069739
692 1 7.582969 37.482648 5.877239
693 1 11.968701 27.399283 -6.775261
694 1 11.531235 29.152187 -4.967761
695 1 11.093850 30.905435 -3.160261
696 1 10.654804 32.659711 -1.352761
697 1 10.214581 34.414103 0.454739
698 1 9.776098 36.167187 2.262239
699 1 9.340233 37.919271 4.069739
700 1 8.903671 39.672316 5.877239
701 1 13.284944 29.590608 -6.775261
702 1 12.846433 31.344385 -4.967761
703 1 12.407324 33.098342 -3.160261
704 1 11.968701 34.851805 -1.352761
705 1 11.531235 36.604709 0.454739
706 1 11.093850 38.357956 2.262239
707 1 10.654804 40.112232 4.069739
708 1 10.214581 41.866624 5.877239
709 1 14.599445 31.782912 -6.775262
710 1 14.160907 33.536472 -4.967762
711 1 13.722853 35.289772 -3.160262
712 1 13.284944 37.043130 -1.352761
713 1 12.846433 38.796906 0.454739
714 1 12.407324 40.550863 2.262239
715 1 11.968701 42.304326 4.069739
716 1 11.531235 44.057230 5.877239
717 1 15.914629 33.974657 -6.775262
718 1 15.476470 35.728106 -4.967762
719 1 15.038101 37.481715 -3.160262
720 1 14.599445 39.235433 -1.352762
721 1 14.160907 40.988993 0.454738
722 1 13.722853 42.742294 2.262238
723 1 13.284944 44.495651 4.069739
724 1 12.846432 46.249427 5.877239
725 1 17.229826 36.166542 -6.775262
726 1 16.791354 37.920158 -4.967762
727 1 16.352895 39.673725 -3.160262
728 1 15.914629 41.427178 -1.352762
729 1 15.476470 43.180627 0.454738
730 1 15.038101 44.934236 2.262238
731 1 14.599444 46.687955 4.069738
732 1 14.160907 48.441514 5.877238
733 1 18.544780 38.358497 -6.775262
734 1 18.106444 40.112009 -4.967762
735 1 17.668168 41.865507 -3.160262
736 1 17.229826 43.619064 -1.352762
737 1 16.791354 45.372679 0.454738
738 1 16.352895 47.126246 2.262238
739 1 15.914629 48.879700 4.069738
740 1 15.476470 50.633148 5.877238
741 1 19.859935 40.550346 -6.775262
742 1 19.421590 42.303888 -4.967762
743 1 18.983190 44.057459 -3.160262
744 1 18.544780 45.811018 -1.352762
745 1 18.106443 47.564530 0.454738
746 1 17.668168 49.318028 2.262238
747 1 17.229826 51.071585 4.069738
748 1 16.791354 52.825200 5.877238
749 1 21.175002 42.742260 -6.775262
750 1 20.736619 44.495812 -4.967762
751 1 20.298261 46.249345 -3.160262
752 1 19.859935 48.002867 -1.352762
753 1 19.421590 49.756410 0.454738
754 1 18.983190 51.509980 2.262238
755 1 18.544780 53.263540 4.069738
756 1 18.106443 55.017052 5.877238
757 1 22.490075 44.934155 -6.775263
758 1 22.051727 46.687689 -4.967762
759 1 21.613376 48.441229 -3.160263
760 1 21.175002 50.194782 -1.352762
761 1 20.736619 51.948333 0.454738
762 1 20.298261 53.701866 2.262238
763 1 19.859934 55.455388 4.069738
764 1 19.421590 57.208931 5.877238
765 1 23.805173 47.126044 -6.775263
766 1 23.366808 48.879590 -4.967763
767 1 22.928438 50.633137 -3.160263
768 1 22.490075 52.386676 -1.352763
769 1 22.051727 54.140210 0.454738
770 1 21.613376 55.893750 2.262237
771 1 21.175002 57.647303 4.069738
772 1 20.736619 59.400855 5.877238
773 1 25.120249 49.317945 -6.775263
774 1 24.681886 51.071487 -4.967763
775 1 24.243529 52.825025 -3.160263
776 1 23.805173 54.578566 -1.352763
777 1 23.366808 56.332112 0.454737
778 1 22.928438 58.085658 2.262237
779 1 26.435335 51.509838 -6.775263
780 1 25.996976 53.263379 -4.967763
781 1 25.558614 55.016922 -3.160263
782 1 25.120249 56.770466 -1.352763
783 1 24.681886 58.524008 0.454737
784 1 27.750419 53.701733 -6.775263
785 1 27.312056 55.455276 -4.967763
786 1 26.873694 57.208818 -3.160263
787 1 26.435335 58.962359 -1.352763
788 1 29.065501 55.893629 -6.775263
789 1 28.627141 57.647171 -4.967763
790 1 28.188781 59.400712 -3.160263
791 1 30.380586 58.085524 -6.775263
792 1 1.000737 4.064039 -6.775260
793 1 0.664421 5.940476 -4.967759
794 1 0.289722 7.734921 -3.160259
795 1 2.360216 6.326596 -6.775260
796 1 1.893606 8.176115 -4.967760
797 1 1.355225 9.893887 -3.160260
798 1 1.000737 11.516560 -1.352760
799 1 0.664421 13.392998 0.454741
800 1 0.289722 15.187443 2.262241
801 1 3.617002 8.563402 -6.775260
802 1 3.208367 10.307652 -4.967760
803 1 2.774810 12.028182 -3.160260
804 1 2.360216 13.779118 -1.352760
805 1 1.893606 15.628636 0.454740
806 1 1.355225 17.346409 2.262240
807 1 1.000737 18.969081 4.069740
808 1 0.664421 20.845519 5.877240
809 1 4.967175 10.735597 -6.775260
810 1 4.532638 12.488181 -4.967760
811 1 4.068619 14.252265 -3.160260
812 1 3.617002 16.015924 -1.352760
813 1 3.208367 17.760173 0.454740
814 1 2.774810 19.480703 2.262240
815 1 2.360216 21.231639 4.069740
816 1 1.893606 23.081157 5.877240
817 1 6.270616 12.936016 -6.775260
818 1 5.821171 14.691146 -4.967760
819 1 5.388984 16.437982 -3.160260
820 1 4.967175 18.188118 -1.352760
821 1 4.532638 19.940702 0.454740
822 1 4.068619 21.704787 2.262240
823 1 3.617002 23.468445 4.069740
824 1 3.208367 25.212694 5.877240
825 1 7.582969 15.125084 -6.775261
826 1 7.150395 16.874575 -4.967760
827 1 6.715862 18.628249 -3.160260
828 1 6.270616 20.388537 -1.352760
829 1 5.821171 22.143667 0.454740
830 1 5.388984 23.890503 2.262240
831 1 4.967175 25.640640 4.069740
832 1 4.532638 27.393224 5.877240
833 1 8.903671 17.314752 -6.775261
834 1 8.462893 19.070288 -4.967761
835 1 8.020453 20.825870 -3.160261
836 1 7.582969 22.577606 -1.352761
837 1 7.150395 24.327097 0.454740
838 1 6.715862 26.080770 2.262240
839 1 6.270616 27.841059 4.069740
840 1 5.821171 29.596188 5.877240
841 1 10.214581 19.509060 -6.775261
842 1 9.776098 21.262145 -4.967761
843 1 9.340233 23.014229 -3.160261
844 1 8.903671 24.767273 -1.352761
845 1 8.462893 26.522809 0.454739
846 1 8.020453 28.278392 2.262239
847 1 7.582969 30.030127 4.069739
848 1 7.150395 31.779618 5.877240
849 1 11.531235 21.699666 -6.775261
850 1 11.093850 23.452914 -4.967761
851 1 10.654804 25.207190 -3.160261
852 1 10.214581 26.961582 -1.352761
853 1 9.776098 28.714666 0.454739
854 1 9.340233 30.466750 2.262239
855 1 8.903671 32.219795 4.069739