LAMMPS data file via write_data, version 29 Aug 2024, timestep = 589, units = metal

29248 atoms
2 atom types

-100.1 100.1 xlo xhi
-59.6201706 59.6201706 ylo yhi
-7.23 7.23 zlo zhi
0 0 0 xy xz yz

Masses

1 63.55
2 63.55

Atoms # atomic

1 1 0.6858903016642728 57.95897554217401 -6.7824556449628775 0 0 0
2 2 -0.3287857092344524 52.419518306976634 -4.974954642255518 0 0 0
3 1 0.8312242516364137 54.051460111985044 -6.782455945927871 0 0 0
4 1 0.8337141678338043 55.93556871241109 -4.974955923244742 0 0 0
5 1 0.6858904114370432 57.958975575808516 -3.1674561606825127 0 0 0
6 1 2.609810499499659 56.36480002463056 -6.782456854650577 0 0 0
7 1 2.3227452218609983 58.20157268936172 -4.97495649358104 0 0 0
8 1 4.008111216914571 58.6147914482816 -6.782457209475579 0 0 0
9 2 0.8559697677392961 50.26989398127778 -4.974955699995955 0 0 0
10 2 0.8629374991525935 48.441528019465856 -3.1674555317541344 0 0 0
11 2 -0.3287858089025377 52.41951823124452 -1.3599546461850307 0 0 0
12 1 2.3840953623598296 50.69944213436339 -6.78245633304238 0 0 0
13 1 2.004060534116988 52.49648176750133 -4.974957057091186 0 0 0
14 1 0.8312242457320735 54.05146011250837 -3.1674559249110894 0 0 0
15 1 0.8337141211541166 55.935568702361486 -1.359955915595408 0 0 0
16 1 0.6858902929542268 57.958975543741836 0.44754436616122245 0 0 0
17 1 3.5926402506098754 52.955302936146715 -6.7824574410904175 0 0 0
18 1 3.0369361726024664 54.69223063479324 -4.974957274058911 0 0 0
19 1 2.609810483574691 56.364800050215486 -3.1674568850361577 0 0 0
20 1 2.3227453449549387 58.20157275177515 -1.3599565463483017 0 0 0
21 1 4.857765306574265 55.11756453062963 -6.782457817493325 0 0 0
22 1 4.429959309240019 56.84183836963887 -4.974957540879189 0 0 0
23 1 4.008111208032645 58.61479144541479 -3.16745718447552 0 0 0
24 1 6.200413672190464 57.28645325519643 -6.78245809704127 0 0 0
25 1 5.770866748473225 59.03726840762884 -4.974957811851995 0 0 0
26 2 0.8686854190409434 40.987643047830424 -4.974955668184516 0 0 0
27 2 -0.30969473081079 44.98396450731055 -3.167454357897446 0 0 0
28 1 2.025197108662411 45.016192918807995 -6.782456586342941 0 0 0
29 2 0.8462416715992873 46.58684375772582 -4.9749553661122095 0 0 0
30 2 0.8559695474746718 50.26989394214396 -1.3599556939213628 0 0 0
31 2 0.862937493237041 48.44152801962911 0.44754446594811714 0 0 0
32 2 -0.32878571811370705 52.419518312322616 2.2550453568503466 0 0 0
33 1 3.0938001532677504 47.17890899726395 -6.782456938514518 0 0 0
34 1 2.7394435156412555 48.80600348738481 -4.974956716539372 0 0 0
35 1 2.3840953636036346 50.69944213771199 -3.1674564454891194 0 0 0
36 1 2.00406068794598 52.496481841263794 -1.3599570505871346 0 0 0
37 1 0.8312242489134007 54.051460112434164 0.44754405503879996 0 0 0
38 1 0.8337141696638213 55.935568713203374 2.2550440754780356 0 0 0
39 1 0.6858904023708732 57.958975579224564 4.062543827838411 0 0 0
40 1 4.496669842566789 49.333345377935295 -6.782457300389141 0 0 0
41 1 4.073188356674791 51.092316382185054 -4.974957145398419 0 0 0
42 1 3.5926402412742107 52.95530292836428 -3.1674573677499467 0 0 0
43 1 3.036936148294302 54.69223056044587 -1.3599572713483359 0 0 0
44 1 2.6098104998416574 56.36480002508106 0.4475431469732837 0 0 0
45 1 2.32274522181757 58.20157269039881 2.2550435068638164 0 0 0
46 1 5.768596195538308 51.57558031764322 -6.782457783711583 0 0 0
47 1 5.300129137965882 53.35338238863914 -4.974957916368675 0 0 0
48 1 4.857765312606091 55.11756452878998 -3.1674578233999875 0 0 0
49 1 4.429959307760811 56.841838390991406 -1.359957540057622 0 0 0
50 1 4.008111217379309 58.614791448753884 0.4475427905724639 0 0 0
51 1 7.060554661103396 53.77804021430298 -6.782458568738422 0 0 0
52 1 6.631242263463491 55.532090934489936 -4.974958402898301 0 0 0
53 1 6.200413677593346 57.28645325230347 -3.167458094291002 0 0 0
54 1 5.770866747756372 59.0372683947927 -1.3599578046825431 0 0 0
55 1 8.39648546009569 55.9585818093312 -6.782458948568254 0 0 0
56 1 7.969550207748071 57.710017359772415 -4.974958679039015 0 0 0
57 1 9.741679381878726 58.1336248821683 -6.782459338094389 0 0 0
58 2 -0.30214952770242576 37.5384367001055 -4.974954485071302 0 0 0
59 2 0.8131123704909413 -50.28662747100849 -6.782455896015187 0 0 1
60 2 0.865375430072163 42.814723139497566 -3.1674556510547665 0 0 0
61 2 0.8686854215978741 40.9876430453406 -1.35995566743714 0 0 0
62 2 -0.30969475452086215 44.9839645234399 0.4475456480611118 0 0 0
63 1 2.74736447040452 41.34042292278405 -6.782456742733692 0 0 0
64 1 2.4025628715640863 43.22203480321287 -4.974956209248166 0 0 0
65 1 2.02519709720481 45.01619292211962 -3.167456594539777 0 0 0
66 2 0.8462416639934105 46.58684375374249 -1.3599553675391072 0 0 0
67 2 0.8559697712683345 50.26989397779163 2.255044303803071 0 0 0
68 2 0.8629374993803793 48.441528017320785 4.062544465443703 0 0 0
69 2 -0.3287857421763789 52.419518200267426 5.870045353716511 0 0 0
70 1 4.097556458584094 43.61245899064668 -6.782456852204098 0 0 0
71 1 3.629033187513457 45.462869159480825 -4.974956874687301 0 0 0
72 1 3.0938001633473675 47.17890899730197 -3.1674569214058645 0 0 0
73 1 2.7394435735271543 48.8060034167795 -1.3599567175774803 0 0 0
74 1 2.384095359586766 50.699442132960094 0.44754366096003195 0 0 0
75 1 2.00406053778714 52.49648176764409 2.2550429478779432 0 0 0
76 1 0.8312242443634972 54.05146011296551 4.062544076188465 0 0 0
77 1 0.8337141212763299 55.93556870229619 5.8700440837428856 0 0 0
78 1 5.351240879713814 45.855325346952974 -6.782457291976758 0 0 0
79 1 4.940412801290805 47.603330602704254 -4.974957353819578 0 0 0
80 1 4.496669842797303 49.333345382067726 -3.167457294994336 0 0 0
81 1 4.073188360763297 51.09231640527886 -1.3599571429081345 0 0 0
82 1 3.59264024250281 52.955302932889644 0.44754254896563667 0 0 0
83 1 3.0369361717585264 54.692230635917916 2.255042726510926 0 0 0
84 1 2.6098104840803984 56.36480004683255 4.062543115522507 0 0 0
85 1 2.3227453441739385 58.20157275230098 5.8700434572531925 0 0 0
86 1 6.688782260685457 48.04056836619049 -6.782457797952719 0 0 0
87 1 6.244662740736516 49.80076946416988 -4.974957815552765 0 0 0
88 1 5.76859619602223 51.5755803160689 -3.167457778625847 0 0 0
89 1 5.300129117726243 53.35338238658327 -1.359957917563552 0 0 0
90 1 4.85776530715367 55.117564531369474 0.4475421811193772 0 0 0
91 1 4.429959309071677 56.841838369957564 2.2550424592177576 0 0 0
92 1 4.008111208494242 58.614791448982636 4.06254281644232 0 0 0
93 1 7.973022961194786 50.25494715100046 -6.782458359419029 0 0 0
94 1 7.510099763716298 52.01993338455741 -4.974958487086377 0 0 0
95 1 7.0605546602978535 53.7780402155093 -3.167458575977062 0 0 0
96 1 6.631242270459694 55.532090938927034 -1.3599584035267702 0 0 0
97 1 6.200413671502375 57.28645325431611 0.4475419036767396 0 0 0
98 1 5.770866748730683 59.037268408103294 2.2550421889718826 0 0 0
99 1 9.267351736561238 52.453638145853965 -6.782458994390187 0 0 0
100 1 8.828275059504307 54.20642713101085 -4.9749590482715815 0 0 0
101 1 8.396485458629755 55.95858181067275 -3.167458948804478 0 0 0
102 1 7.969550208855608 57.71001736039391 -1.3599586798896637 0 0 0
103 1 10.59412680297207 54.63612671723549 -6.782459567904438 0 0 0
104 1 10.16431833896766 56.38575606187259 -4.974959473070895 0 0 0
105 1 9.741679381001433 58.13362488333585 -3.16745933981349 0 0 0
106 1 11.932521147379177 56.81430548054245 -6.7824600377552455 0 0 0
107 1 11.509766234073481 58.56244187513429 -4.9749599552613715 0 0 0
108 1 13.271687599723776 58.9957410665989 -6.7824604899450165 0 0 0
109 2 0.869634507054343 35.36245103242555 -4.974955434653528 0 0 0
110 2 0.8717234189037697 33.5353977093305 -3.1674552998314867 0 0 0
111 2 -0.302149522528822 37.53843669735746 -1.3599544854190377 0 0 0
112 1 2.409235501032626 35.76263535113308 -6.782456072719314 0 0 0
113 1 2.033032148039922 37.55664330568293 -4.9749565842371 0 0 0
114 2 0.8586472446500721 39.13400029840978 -3.1674555815277334 0 0 0
115 2 0.8653754420476361 42.81472313158857 0.44754434951448163 0 0 0
116 2 0.868685418953703 40.98764304737838 2.2550443306394348 0 0 0
117 2 -0.30969473219374777 44.98396451040693 4.062545643338239 0 0 0
118 1 3.637621905735301 38.000722060207515 -6.782456909968023 0 0 0
119 1 3.101650468568991 39.716737056418246 -4.974956922983824 0 0 0
120 1 2.7473644800050607 41.340422919588995 -3.167456741817324 0 0 0
121 1 2.4025628743689396 43.22203480403831 -1.359956204152969 0 0 0
122 1 2.0251971157105118 45.0161929226202 0.44754341397720576 0 0 0
123 2 0.8462416718590475 46.586843757193925 2.2550446344147055 0 0 0
124 2 0.8559695077088065 50.26989397326192 5.870044307702844 0 0 0
125 2 0.8629374921111861 48.44152801740595 -6.782455533048873 0 0 1
126 1 4.952491984061908 40.136126096775676 -6.782457474429884 0 0 0
127 1 4.5152009948614875 41.85970838025771 -4.9749572287504025 0 0 0
128 1 4.097556462482316 43.612458989877545 -3.167456853100911 0 0 0
129 1 3.6290331795874096 45.46286916238795 -1.359956869444931 0 0 0
130 1 3.0938001525214673 47.17890899107095 0.44754306251511244 0 0 0
131 1 2.7394435132374184 48.806003489453694 2.2550432845957498 0 0 0
132 1 2.384095368433549 50.69944213897356 4.06254354148756 0 0 0
133 1 2.0040606305412325 52.49648182911155 5.870042947815274 0 0 0
134 1 6.270140789061244 42.323801121222594 -6.782457697377146 0 0 0
135 1 5.804005494815243 44.089945686105985 -4.974957344688545 0 0 0
136 1 5.3512408813897 45.855325346331504 -3.167457294443427 0 0 0
137 1 4.9404127803114335 47.603330610649884 -1.3599573507447624 0 0 0
138 1 4.496669844249169 49.33334537881358 0.4475427020132612 0 0 0
139 1 4.073188354938935 51.092316383804835 2.2550428602239436 0 0 0
140 1 3.5926402480244946 52.95530293179376 4.062542620108029 0 0 0
141 1 3.0369361508298454 54.69223057513809 5.870042729522507 0 0 0
142 1 7.553416533055469 44.53311641006906 -6.7824578598599015 0 0 0
143 1 7.117699907355757 46.283873321011335 -4.974957762882063 0 0 0
144 1 6.688782257697014 48.04056836496758 -3.167457799770409 0 0 0
145 1 6.2446627499829646 49.80076946363484 -1.3599578143658635 0 0 0
146 1 5.768596197739839 51.57558031755719 0.4475422170386113 0 0 0
147 1 5.300129137956816 53.3533823903713 2.255042086883902 0 0 0
148 1 4.857765310662771 55.117564530587735 4.062542176320231 0 0 0
149 1 4.429959305313474 56.841838389293336 5.870042460147412 0 0 0
150 1 8.871629544712846 46.72646576274902 -6.782458301570368 0 0 0
151 1 8.428861784299258 48.486624973913926 -4.974958275605495 0 0 0
152 1 7.9730229591013 50.25494715102304 -3.1674583583525533 0 0 0
153 1 7.510099764178307 52.0199333848366 -1.3599584853339284 0 0 0
154 1 7.060554661627862 53.77804021465926 0.4475414314011148 0 0 0
155 1 6.631242263219647 55.5320909349548 2.25504159785364 0 0 0
156 1 6.20041367819006 57.2864532533473 4.062541905932333 0 0 0
157 1 5.770866747056672 59.03726839548805 5.870042195265806 0 0 0
158 1 10.168716267694492 48.93269109273998 -6.782458800102367 0 0 0
159 1 9.715973529433754 50.69515844171274 -4.97495888814399 0 0 0
160 1 9.26735173687564 52.45363814532076 -3.167458991126068 0 0 0
161 1 8.828275058921193 54.206427135213936 -1.3599590479715138 0 0 0
162 1 8.396485459800502 55.95858181002617 0.44754105234790653 0 0 0
163 1 7.96955020825753 57.71001735961476 2.255041320658695 0 0 0
164 1 11.469819250933199 51.13037524051685 -6.782459393103122 0 0 0
165 1 11.029132932561183 52.884595782668036 -4.974959504237996 0 0 0
166 1 10.594126801597795 54.63612671792247 -3.167459568303448 0 0 0
167 1 10.164318340210912 56.385756063802184 -1.3599594722924122 0 0 0
168 1 9.741679382415185 58.13362488255199 0.44754066135176024 0 0 0
169 1 12.792066296220995 53.31567431386724 -6.782459940589861 0 0 0
170 1 12.359919649040876 55.06579451181016 -4.974960069523623 0 0 0
171 1 11.932521148321854 56.81430547927726 -3.167460038023754 0 0 0
172 1 11.5097662339155 58.56244187579062 -1.3599599545882068 0 0 0
173 1 14.124985288004709 55.496662342443564 -6.782460506940979 0 0 0
174 1 13.697661596187757 57.245650745797825 -4.974960509910192 0 0 0
175 1 13.271687599679368 58.99574106724639 -3.167460491436863 0 0 0
176 1 15.458993446625314 57.67961533867065 -6.7824609514897904 0 0 0
177 2 0.873827778089975 26.083185055796655 -4.974955219401393 0 0 0
178 2 -0.29812348671383404 30.089142099237613 -3.1674541385218102 0 0 0
179 1 2.0371096606684915 30.101401369104373 -6.782456554351705 0 0 0
180 2 0.8648317538203116 31.68182726812214 -4.974955166292571 0 0 0
181 2 0.8696344924552619 35.36245103392549 -1.359955434698566 0 0 0
182 2 0.8717234184510545 33.53539771073253 0.4475447005211103 0 0 0
183 2 -0.30214952406848283 37.538436698007054 2.255045516883843 0 0 0
184 1 3.1050234646344848 32.26084792895568 -6.782456756665572 0 0 0
185 1 2.7505648270108622 33.88378707489505 -4.974956533509131 0 0 0
186 1 2.4092355036386977 35.76263535297405 -3.1674560804480127 0 0 0
187 1 2.0330321436826324 37.55664330580131 -1.3599565832339489 0 0 0
188 2 0.8586472464863988 39.13400029705799 0.4475444185981439 0 0 0
189 2 0.8653754360340429 42.8147231413537 4.062544352663642 0 0 0
190 2 0.8686854222722502 40.98764304641151 5.87004433249152 0 0 0
191 2 -0.30969474975806577 44.983964524156015 -6.782454353833266 0 0 1
192 1 4.521385465654163 34.40015651565461 -6.782457150823908 0 0 0
193 1 4.105050815528088 36.15160096238437 -4.974956819278397 0 0 0
194 1 3.6376218980785495 38.00072205846538 -3.1674569212602326 0 0 0
195 1 3.101650468276773 39.71673705782822 -1.3599569249262469 0 0 0
196 1 2.747364470086694 41.34042292372322 0.447543258828866 0 0 0
197 1 2.4025628720609262 43.22203480323122 2.2550437917742054 0 0 0
198 1 2.0251970964603316 45.01619292118121 4.062543405518046 0 0 0
199 2 0.8462416627665164 46.58684375263666 5.870044632956265 0 0 0
200 1 5.813105984774978 36.62744131303682 -6.782457503434136 0 0 0
201 1 5.361399921258311 38.39111245092503 -4.974957499480536 0 0 0
202 1 4.952491983408578 40.1361260980785 -3.167457475894258 0 0 0
203 1 4.5152009929716 41.85970837852121 -1.359957230018303 0 0 0
204 1 4.097556456638969 43.61245898980612 0.4475431475966071 0 0 0
205 1 3.6290331868899557 45.4628691598657 2.2550431213071045 0 0 0
206 1 3.0938001636644543 47.17890900203913 4.0625430821872355 0 0 0
207 1 2.739443595491238 48.80600339750878 5.870043283869221 0 0 0
208 1 7.131616880584005 38.81698754592232 -6.78245809703105 0 0 0
209 1 6.707488099687822 40.569162609932384 -4.974957887616376 0 0 0
210 1 6.270140787963399 42.32380112287267 -3.1674576955170033 0 0 0
211 1 5.804005494622757 44.08994568656657 -1.3599573439631638 0 0 0
212 1 5.351240879382459 45.855325347369096 0.44754270730088547 0 0 0
213 1 4.940412801762079 47.60333060239983 2.255042645338114 0 0 0
214 1 4.496669841147522 49.333345381716406 4.062542707497445 0 0 0
215 1 4.073188371518427 51.09231640023939 5.870042857088317 0 0 0
216 1 8.453175346672495 41.013006522087146 -6.782458364442127 0 0 0
217 1 8.00535382669402 42.775502101413814 -4.974958069189327 0 0 0
218 1 7.55341653325064 44.53311641066954 -3.167457857721641 0 0 0
219 1 7.117699910752393 46.283873320569505 -1.3599577611210918 0 0 0
220 1 6.688782258939099 48.040568365944246 0.4475422013128832 0 0 0
221 1 6.244662740640948 49.80076946348998 2.2550421842900223 0 0 0
222 1 5.768596195519976 51.57558031703524 4.062542222110777 0 0 0
223 1 5.300129118524822 53.353382388001954 5.870042082650001 0 0 0
224 1 9.751700031033991 43.21660871375121 -6.782458634174877 0 0 0
225 1 9.310221291747325 44.97189176690339 -4.974958408397958 0 0 0
226 1 8.871629543421747 46.72646576320215 -3.1674583028962253 0 0 0
227 1 8.428861785247932 48.48662497545367 -1.3599582768239178 0 0 0
228 1 7.973022960723512 50.254947151107125 0.44754164071650476 0 0 0
229 1 7.510099763720703 52.01993338486057 2.2550415133827926 0 0 0
230 1 7.060554660016962 53.77804021605598 4.0625414239754924 0 0 0
231 1 6.631242270448624 55.53209093795012 5.870041596180626 0 0 0
232 1 11.061786886084462 45.41283633999259 -6.782459077867112 0 0 0
233 1 10.618203737410226 47.1710303395975 -4.97495890184814 0 0 0
234 1 10.168716266060613 48.93269109211085 -3.1674588015856195 0 0 0
235 1 9.715973528877043 50.69515844235698 -1.359958889520996 0 0 0
236 1 9.267351735966002 52.45363814618016 0.44754100572351163 0 0 0
237 1 8.82827505989792 54.20642713165591 2.255040953036414 0 0 0
238 1 8.396485459183864 55.95858181095087 4.062541052195818 0 0 0
239 1 7.969550208750405 57.71001735954392 5.870041320452585 0 0 0
240 1 12.364188482577134 47.61363817776202 -6.782459545842349 0 0 0
241 1 11.91605212479871 49.37292489162086 -4.974959314026593 0 0 0
242 1 11.469819252909502 51.13037523971732 -3.167459392942247 0 0 0
243 1 11.029132930804295 52.884595785919124 -1.3599595055483922 0 0 0
244 1 10.594126801809551 54.63612671734993 0.4475404322428935 0 0 0
245 1 10.164318339035162 56.385756061152186 2.255040527443003 0 0 0
246 1 9.741679380905595 58.13362488265438 4.062540660573327 0 0 0
247 1 13.669673392307743 49.80939348903214 -6.78245983351889 0 0 0
248 1 13.22866071309761 51.563647886240794 -4.974959871951583 0 0 0
249 1 12.792066295395898 53.31567431345521 -3.167459942376893 0 0 0
250 1 12.359919649463933 55.06579451104215 -1.359960069847481 0 0 0
251 1 11.932521147102278 56.81430548012357 0.4475399618389761 0 0 0
252 1 11.509766233536752 58.562441874151 2.255040044823562 0 0 0
253 1 14.989423317100815 51.996456041356375 -6.78246038717222 0 0 0
254 1 14.555415740330247 53.74719377975881 -4.974960444927103 0 0 0
255 1 14.124985286926446 55.496662343067236 -3.1674605089440284 0 0 0
256 1 13.697661596064577 57.24565074529635 -1.359960511329121 0 0 0
257 1 13.271687599394326 58.99574106643406 0.4475395112997277 0 0 0
258 1 16.318180731862924 54.179710599686295 -6.782461007280695 0 0 0
259 1 15.887944796376644 55.92944660915378 -4.974961003440345 0 0 0
260 1 15.458993446611913 57.67961534032613 -3.1674609513120946 0 0 0
261 1 17.648454696354378 56.36399242727796 -6.782461432182498 0 0 0
262 1 17.217637314579292 58.115186764518945 -4.974961301529904 0 0 0
263 1 18.97476386020091 58.55160902882604 -6.782461564798309 0 0 0
264 2 -0.2954738051403325 22.638363559198872 -4.9749541149717365 0 0 0
265 2 0.8945822355982358 -46.61045557504732 -6.782455921693508 0 0 1
266 2 0.8722892430889573 27.910237221989952 -3.1674553445305063 0 0 0
267 2 0.8738277779003596 26.08318505822067 -1.3599552191291766 0 0 0
268 2 -0.29812351813852445 30.08914210965289 0.44754586215804043 0 0 0
269 1 2.752678821154589 26.429556131751504 -6.782456650722815 0 0 0
270 1 2.4128512228066654 28.307374150729878 -4.974955902535978 0 0 0
271 1 2.0371096351026523 30.101401359892215 -3.1674565592638495 0 0 0
272 2 0.8648317518370305 31.68182726752152 -1.3599551691006966 0 0 0
273 2 0.8696345064680031 35.3624510336983 2.2550445680775235 0 0 0
274 2 0.8717234189284397 33.535397706383485 4.062544698513837 0 0 0
275 2 -0.3021494674615042 37.538436678681016 5.87004551521306 0 0 0
276 1 4.108851999831742 28.695622294666613 -6.782456740008766 0 0 0
277 1 3.641698608207065 30.544510076771168 -4.974956814165654 0 0 0
278 1 3.1050234661293814 32.26084793696965 -3.167456756789358 0 0 0
279 1 2.7505648296743317 33.88378706920111 -1.3599565372056106 0 0 0
280 1 2.4092355041267695 35.76263535266559 0.4475439265528212 0 0 0
281 1 2.033032144435495 37.55664330486761 2.2550434173445324 0 0 0
282 2 0.8586472450337794 39.13400029770411 4.062544420214402 0 0 0
283 2 0.8653754479437055 42.81472313486605 -6.782455653377672 0 0 1
284 1 5.365707921472861 30.934014117542823 -6.7824573699820006 0 0 0
285 1 4.957032114432977 32.67829608822243 -4.974957338872677 0 0 0
286 1 4.521385464226569 34.40015651534373 -3.167457146015138 0 0 0
287 1 4.105050815780473 36.151600962630006 -1.359956818016148 0 0 0
288 1 3.6376218977683976 38.000722059746515 0.44754307890775336 0 0 0
289 1 3.1016504685015036 39.71673705737421 2.255043078187532 0 0 0
290 1 2.747364478355749 41.3404229170201 4.062543260443451 0 0 0
291 1 2.402562870705765 43.22203480365999 5.8700437956754135 0 0 0
292 1 6.7139663658497994 33.109646263266534 -6.782457776433148 0 0 0
293 1 6.2779985023986455 34.86290649433507 -4.974957696114909 0 0 0
294 1 5.813105986800608 36.627441313005 -3.1674575013879775 0 0 0
295 1 5.3613999228912235 38.39111245260994 -1.3599574959905074 0 0 0
296 1 4.952491984497598 40.136126098637355 0.4475425268918088 0 0 0
297 1 4.5152009937238375 41.85970837985173 2.2550427716941774 0 0 0
298 1 4.097556463117527 43.612458990518085 4.06254314650353 0 0 0
299 1 3.6290331807616667 45.46286916390857 5.870043129756373 0 0 0
300 1 8.0150064347594 35.313334808241414 -6.782458234258334 0 0 0
301 1 7.5647771491515385 37.06907051774291 -4.974958114795668 0 0 0
302 1 7.131616880270414 38.816987545461906 -3.167458095117764 0 0 0
303 1 6.707488095376803 40.569162611453 -1.3599578878563328 0 0 0
304 1 6.270140789194045 42.32380112117442 0.44754230384818466 0 0 0
305 1 5.804005495097314 44.08994568650174 2.2550426564705472 0 0 0
306 1 5.351240881220093 45.855325345967366 4.062542705398729 0 0 0
307 1 4.94041277481594 47.603330613161496 5.870042649419567 0 0 0
308 1 9.324722584675001 37.50611764916304 -6.782458790118777 0 0 0
309 1 8.890193295208576 39.25728901294999 -4.974958604053603 0 0 0
310 1 8.45317534611658 41.01300652273212 -3.1674583627124826 0 0 0
311 1 8.005353828029257 42.775502103447415 -1.359958068423412 0 0 0
312 1 7.553416533491486 44.53311641001974 0.44754213947806387 0 0 0
313 1 7.117699907193767 46.283873320505656 2.255042237517651 0 0 0
314 1 6.688782258820368 48.04056836438544 4.0625421988425385 0 0 0
315 1 6.244662748253489 49.80076946462146 5.870042185440486 0 0 0
316 1 10.640657334427402 39.70067882862423 -6.782459129872074 0 0 0
317 1 10.197186741639612 41.45840668613942 -4.974958806112321 0 0 0
318 1 9.75170003059344 43.21660871355143 -3.1674586365300894 0 0 0
319 1 9.310221291032718 44.97189176912894 -1.3599584083897651 0 0 0
320 1 8.871629545026224 46.726465762502635 0.44754169992043286 0 0 0
321 1 8.42886178399057 48.486624974147524 2.255041723792482 0 0 0
322 1 7.973022959626334 50.25494715039172 4.062541641016967 0 0 0
323 1 7.5100997648797545 52.01993338536564 5.870041514055642 0 0 0
324 1 11.94548277749935 41.90040422016883 -6.782459314698809 0 0 0
325 1 11.503008086324357 43.656633776135585 -4.974959192979119 0 0 0
326 1 11.061786884979284 45.41283633978741 -3.167459077748283 0 0 0
327 1 10.61820373751847 47.17103033881482 -1.359958902513269 0 0 0
328 1 10.168716267795062 48.9326910920065 0.4475411981238162 0 0 0
329 1 9.71597352976245 50.69515844149796 2.255041110485156 0 0 0
330 1 9.267351737089896 52.4536381453591 4.062541008410375 0 0 0
331 1 8.828275060251812 54.206427134311916 5.87004095178475 0 0 0
332 1 13.253667071049591 44.09740354625031 -6.782459822433997 0 0 0
333 1 12.810330667698096 45.85472052404585 -4.97495972372211 0 0 0
334 1 12.36418848306316 47.613638177107525 -3.1674595460807136 0 0 0
335 1 11.916052126604072 49.37292488971679 -1.3599593151809375 0 0 0
336 1 11.46981925094471 51.130375240580925 0.4475406069920706 0 0 0
337 1 11.029132932534225 52.88459578254176 2.2550404954369436 0 0 0
338 1 10.59412680300872 54.63612671683243 4.062540432176212 0 0 0
339 1 10.164318340729793 56.38575606237921 5.870040527347 0 0 0
340 1 14.55925972566763 46.295494036259036 -6.7824602727832906 0 0 0
341 1 14.113990833990272 48.0529883483786 -4.974960086177979 0 0 0
342 1 13.669673393304961 49.80939348873894 -3.167459835050981 0 0 0
343 1 13.228660710983277 51.56364788672156 -1.3599598698994393 0 0 0
344 1 12.792066296079739 53.315674314094956 0.4475400581724329 0 0 0
345 1 12.35991964976273 55.06579451085451 2.2550399302962365 0 0 0
346 1 11.932521148979987 56.8143054786885 4.06253996125934 0 0 0
347 1 11.509766233148696 58.56244187464704 5.870040045076678 0 0 0
348 1 15.867731498232956 48.489937117012055 -6.782460585172959 0 0 0
349 1 15.426985605682816 50.24407943470761 -4.9749604184680045 0 0 0
350 1 14.98942331661354 51.996456040654174 -3.1674603850704885 0 0 0
351 1 14.555415739226888 53.74719378260348 -1.3599604465105772 0 0 0
352 1 14.124985287512473 55.49666234297228 0.44753949321838654 0 0 0
353 1 13.697661596270194 57.2456507452299 2.2550394892622796 0 0 0
354 1 13.27168759955967 58.995741066333544 4.0625395091248775 0 0 0
355 1 17.186106870717296 50.678178564405734 -6.782461034541805 0 0 0
356 1 16.750766259160017 52.429477619655735 -4.974960990902867 0 0 0
357 1 16.31818073060144 54.17971059921225 -3.167461009109863 0 0 0
358 1 15.887944793735173 55.9294466077805 -1.3599610030491733 0 0 0
359 1 15.458993446213626 57.67961533934342 0.4475390488776998 0 0 0
360 1 18.51176446559461 52.86319725015587 -6.782461536285762 0 0 0
361 1 18.079517305267714 54.613545930256514 -4.974961485846057 0 0 0
362 1 17.648454695647786 56.36399242697802 -3.1674614298207113 0 0 0
363 1 17.217637315285046 58.11518676424037 -1.3599613013219956 0 0 0
364 1 19.839202831715767 55.0486124495826 -6.782461865358038 0 0 0
365 1 19.407035407915316 56.79975794953021 -4.974961694531435 0 0 0
366 1 18.974763860382794 58.551609027697246 -3.1674615657134426 0 0 0
367 1 21.164330520420023 57.23628635689726 -6.78246199247527 0 0 0
368 1 20.7310363779645 58.988528463216475 -4.9749618320642774 0 0 0
369 2 0.8742680666051967 20.457998039281044 -4.97495583671556 0 0 0
370 2 0.8755266439737852 18.63094478834659 -3.1674557264649867 0 0 0
371 2 -0.29547384553065115 22.638363573639914 -1.3599541137168518 0 0 0
372 1 2.415295005951563 20.853614375538164 -6.782456633147277 0 0 0
373 1 2.039775354710031 22.647668479098876 -4.974957053859972 0 0 0
374 2 0.8685654060880239 24.229622211631373 -3.1674553121379407 0 0 0
375 2 0.8722892486491816 27.91023721012673 0.44754465542421434 0 0 0
376 2 0.8738277783736663 26.083185057748516 2.2550447780031595 0 0 0
377 2 -0.2981234893171205 30.089142098409773 4.062545860788679 0 0 0
378 1 3.6443059162597535 23.090318031997178 -6.782457359465113 0 0 0
379 1 3.1072270137414506 24.806874329073487 -4.974956986502638 0 0 0
380 1 2.752678822645379 26.429556132880087 -3.167456653497122 0 0 0
381 1 2.412851223815437 28.307374153616216 -1.3599559017738616 0 0 0
382 1 2.037109663953416 30.10140137010297 0.44754344332953605 0 0 0
383 2 0.8648317530987697 31.681827268341998 2.255044830266356 0 0 0
384 2 0.8696344942310645 35.36245105628574 5.870044564807912 0 0 0
385 2 0.8586472451910083 39.134000296459554 -6.78245558241861 0 0 1
386 1 4.9596969914019695 25.223400917507952 -6.782457656340496 0 0 0
387 1 4.524691257453384 26.944603321841974 -4.974957249164158 0 0 0
388 1 4.108852004514262 28.695622290168167 -3.1674567397931086 0 0 0
389 1 3.641698606558464 30.544510078237572 -1.3599568046768444 0 0 0
390 1 3.1050234640014622 32.260847927977856 0.4475432426933961 0 0 0
391 1 2.7505648270241068 33.88378707339884 2.25504346630775 0 0 0
392 1 2.4092355021584524 35.762635352091884 4.062543919571403 0 0 0
393 1 2.033032091065465 37.556643288882206 5.870043416486045 0 0 0
394 1 6.281896513927492 27.40670586718091 -6.782457798805265 0 0 0
395 1 5.817316822056981 29.17074715347041 -4.974957331289006 0 0 0
396 1 5.365707923938999 30.93401411808086 -3.1674573694196777 0 0 0
397 1 4.957032113550554 32.67829609024451 -1.359957340987743 0 0 0
398 1 4.521385464830161 34.400156514893006 0.4475428500378462 0 0 0
399 1 4.105050816096892 36.15160096131077 2.25504318092752 0 0 0
400 1 3.6376219062676967 38.000722060664096 4.062543068643238 0 0 0
401 1 3.1016504722603457 39.71673707481174 5.870043076036121 0 0 0
402 1 7.569646298181084 29.61168138504329 -6.782458061407718 0 0 0
403 1 7.1369997466333075 31.3587608401512 -4.974957888947133 0 0 0
404 1 6.713966364975889 33.10964626425126 -3.1674577761990257 0 0 0
405 1 6.2779985020365245 34.8629064980204 -1.3599576962488256 0 0 0
406 1 5.81310598502732 36.62744131346037 0.4475424975041344 0 0 0
407 1 5.3613999213762895 38.39111245165349 2.255042505008866 0 0 0
408 1 4.952491982432562 40.13612609624615 4.062542525526765 0 0 0
409 1 4.5152009902014925 41.859708376288374 5.870042769968176 0 0 0
410 1 8.89708989610746 31.79799661361624 -6.782458524286258 0 0 0
411 1 8.461349682862092 33.55238560545046 -4.974958343529723 0 0 0
412 1 8.015006435137366 35.31333480873449 -3.1674582346544713 0 0 0
413 1 7.564777148367199 37.06907051995088 -1.3599581142971606 0 0 0
414 1 7.131616879895844 38.816987546011795 0.4475419029513556 0 0 0
415 1 6.707488099560734 40.5691626103682 2.2550421115977426 0 0 0
416 1 6.270140787648629 42.32380112143799 4.062542304263874 0 0 0
417 1 5.804005494639696 44.08994568785254 5.87004265567868 0 0 0
418 1 10.207129115184173 33.99682290337736 -6.782459006099604 0 0 0
419 1 9.76353867440524 35.75324677083169 -4.974958901612943 0 0 0
420 1 9.324722583957723 37.50611764986191 -3.1674587915713333 0 0 0
421 1 8.890193294688515 39.25728901271025 -1.3599586048679362 0 0 0
422 1 8.453175346573587 41.01300652193225 0.4475416354909992 0 0 0
423 1 8.005353826608044 42.775502101869726 2.2550419312525873 0 0 0
424 1 7.553416532732072 44.53311641019004 4.062542142246187 0 0 0
425 1 7.117699912012867 46.28387331966788 5.870042238941617 0 0 0
426 1 11.517352770768284 36.19218079962342 -6.78245950592329 0 0 0
427 1 11.079580269423232 37.945766051867956 -4.974959405637888 0 0 0
428 1 10.640657334300556 39.700678829080765 -3.167459129289219 0 0 0
429 1 10.19718674375737 41.458406687282086 -1.359958807405159 0 0 0
430 1 9.751700030566369 43.21660871387065 0.44754136527862065 0 0 0
431 1 9.310221292101957 44.97189176645204 2.2550415916013478 0 0 0
432 1 8.871629543487003 46.72646576214881 4.062541697430492 0 0 0
433 1 8.428861785789351 48.486624975329086 5.870041722756521 0 0 0
434 1 12.830638423303242 38.38723704783616 -6.782459845594825 0 0 0
435 1 12.388888715451984 40.143547825093286 -4.974959647021091 0 0 0
436 1 11.945482778224232 41.90040422046247 -3.1674593140465928 0 0 0
437 1 11.503008086940298 43.65663377663686 -1.3599591934575803 0 0 0
438 1 11.061786885444576 45.41283633958418 0.4475409212844637 0 0 0
439 1 10.618203737893865 47.17103033953517 2.2550410983131925 0 0 0
440 1 10.168716266271602 48.932691092055755 4.062541197652971 0 0 0
441 1 9.715973528633015 50.69515844187213 5.870041110876168 0 0 0