# LAMMPS data file Sigma = 17, inclination = 0.000000
#LAMMPS data file
29248 atoms
2 atom types
-100.1000000000 100.1000000000 xlo xhi
-59.6201706000 59.6201706000 ylo yhi
-7.2300000000 7.2300000000 zlo zhi
0.0 0.0 0.0 xy xz yz

Atoms # atomic

1 1 0.4383815949 57.8657718755 -5.4225000000
2 1 -0.0000013949 52.1677746177 -5.4225000000
3 1 1.3151479732 54.3561941077 -5.4225000000
4 1 0.8767647841 56.1110747356 -3.6150000000
5 1 0.4383815949 57.8657718755 -1.8075000000
6 1 2.6302973413 56.5452758648 -5.4225000000
7 1 2.1919141522 58.3002421193 -3.6150000000
8 1 3.9454467095 58.7348898801 -5.4225000000
9 1 0.8767649833 48.6576008207 -5.4225000000
10 1 0.4383817942 50.4128228044 -3.6150000000
11 1 -0.0000013949 52.1677746177 -1.8075000000
12 1 2.1919143515 50.8457314899 -5.4225000000
13 1 1.7535311623 52.6010944444 -3.6150000000
14 1 1.3151479732 54.3561941077 -1.8075000000
15 1 0.8767647841 56.1110747356 0.0000000000
16 1 0.4383815949 57.8657718755 1.8075000000
17 1 3.5070637196 53.0346757001 -5.4225000000
18 1 3.0686805305 54.7900998099 -3.6150000000
19 1 2.6302973413 56.5452758648 -1.8075000000
20 1 2.1919141522 58.3002421193 0.0000000000
21 1 4.8222130878 55.2242521353 -5.4225000000
22 1 4.3838298986 56.9796856598 -3.6150000000
23 1 3.9454467095 58.7348898801 -1.8075000000
24 1 6.1373624559 57.4143236684 -5.4225000000
25 1 5.6989792668 59.1697334697 -3.6150000000
26 1 0.4383819935 42.9595197907 -5.4225000000
27 1 -0.0000011957 44.7152349191 -3.6150000000
28 1 1.7535313616 45.1460698251 -5.4225000000
29 1 1.3151481725 46.9020444673 -3.6150000000
30 1 0.8767649833 48.6576008207 -1.8075000000
31 1 0.4383817942 50.4128228044 0.0000000000
32 1 -0.0000013949 52.1677746177 1.8075000000
33 1 3.0686807298 47.3339785297 -5.4225000000
34 1 2.6302975406 49.0900496641 -3.6150000000
35 1 2.1919143515 50.8457314899 -1.8075000000
36 1 1.7535311623 52.6010944444 0.0000000000
37 1 1.3151479732 54.3561941077 1.8075000000
38 1 0.8767647841 56.1110747356 3.6150000000
39 1 0.4383815949 57.8657718755 5.4225000000
40 1 4.3838300979 49.5228845873 -5.4225000000
41 1 3.9454469088 51.2789566047 -3.6150000000
42 1 3.5070637196 53.0346757001 -1.8075000000
43 1 3.0686805305 54.7900998099 0.0000000000
44 1 2.6302973413 56.5452758648 1.8075000000
45 1 2.1919141522 58.3002421193 3.6150000000
46 1 5.6989794661 51.7125323295 -5.4225000000
47 1 5.2605962769 53.4685501259 -3.6150000000
48 1 4.8222130878 55.2242521353 -1.8075000000
49 1 4.3838298986 56.9796856598 0.0000000000
50 1 3.9454467095 58.7348898801 1.8075000000
51 1 7.0141288342 53.9027386820 -5.4225000000
52 1 6.5757456451 55.6586716021 -3.6150000000
53 1 6.1373624559 57.4143236684 -1.8075000000
54 1 5.6989792668 59.1697334697 0.0000000000
55 1 8.3292782024 56.0933707273 -5.4225000000
56 1 7.8908950132 57.8492029455 -3.6150000000
57 1 9.6444275705 58.2843305990 -5.4225000000
58 1 -0.0000009964 37.2626952216 -5.4225000000
59 1 1.3151483718 39.4462297302 -5.4225000000
60 1 0.8767651826 41.2032469287 -3.6150000000
61 1 0.4383819935 42.9595197907 -1.8075000000
62 1 -0.0000011957 44.7152349191 0.0000000000
63 1 2.6302977399 41.6323824561 -5.4225000000
64 1 2.1919145508 43.3895656752 -3.6150000000
65 1 1.7535313616 45.1460698251 -1.8075000000
66 1 1.3151481725 46.9020444673 0.0000000000
67 1 0.8767649833 48.6576008207 1.8075000000
68 1 0.4383817942 50.4128228044 3.6150000000
69 1 -0.0000013949 52.1677746177 5.4225000000
70 1 3.9454471081 43.8202817420 -5.4225000000
71 1 3.5070639189 45.5774279888 -3.6150000000
72 1 3.0686807298 47.3339785297 -1.8075000000
73 1 2.6302975406 49.0900496641 0.0000000000
74 1 2.1919143515 50.8457314899 1.8075000000
75 1 1.7535311623 52.6010944444 3.6150000000
76 1 1.3151479732 54.3561941077 5.4225000000
77 1 0.8767647841 56.1110747356 7.2300000000
78 1 5.2605964762 46.0093760954 -5.4225000000
79 1 4.8222132871 47.7663876959 -3.6150000000
80 1 4.3838300979 49.5228845873 -1.8075000000
81 1 3.9454469088 51.2789566047 0.0000000000
82 1 3.5070637196 53.0346757001 1.8075000000
83 1 3.0686805305 54.7900998099 3.6150000000
84 1 2.6302973413 56.5452758648 5.4225000000
85 1 2.1919141522 58.3002421193 7.2300000000
86 1 6.5757458444 48.1993078066 -5.4225000000
87 1 6.1373626552 49.9561414330 -3.6150000000
88 1 5.6989794661 51.7125323295 -1.8075000000
89 1 5.2605962769 53.4685501259 0.0000000000
90 1 4.8222130878 55.2242521353 1.8075000000
91 1 4.3838298986 56.9796856598 3.6150000000
92 1 3.9454467095 58.7348898801 5.4225000000
93 1 7.8908952125 50.3898385093 -5.4225000000
94 1 7.4525120234 52.1464791144 -3.6150000000
95 1 7.0141288342 53.9027386820 -1.8075000000
96 1 6.5757456451 55.6586716021 0.0000000000
97 1 6.1373624559 57.4143236684 1.8075000000
98 1 5.6989792668 59.1697334697 3.6150000000
99 1 9.2060445806 52.5808052460 -5.4225000000
100 1 8.7676613915 54.3372524581 -3.6150000000
101 1 8.3292782024 56.0933707273 -1.8075000000
102 1 7.8908950132 57.8492029455 0.0000000000
103 1 10.5211939488 54.7720940114 -5.4225000000
104 1 10.0828107597 56.5283548904 -3.6150000000
105 1 9.6444275705 58.2843305990 -1.8075000000
106 1 11.8363433169 56.9636234050 -5.4225000000
107 1 11.3979601278 58.7197085286 -3.6150000000
108 1 13.1514926851 59.1553342620 -5.4225000000
109 1 0.8767653819 33.7460563966 -5.4225000000
110 1 0.4383821928 35.5051838419 -3.6150000000
111 1 -0.0000009964 37.2626952216 -1.8075000000
112 1 2.1919147500 35.9287475128 -5.4225000000
113 1 1.7535315609 37.6881976078 -3.6150000000
114 1 1.3151483718 39.4462297302 -1.8075000000
115 1 0.8767651826 41.2032469287 0.0000000000
116 1 0.4383819935 42.9595197907 1.8075000000
117 1 -0.0000011957 44.7152349191 3.6150000000
118 1 3.5070641182 38.1150837975 -5.4225000000
119 1 3.0686809290 39.8743160313 -3.6150000000
120 1 2.6302977399 41.6323824561 -1.8075000000
121 1 2.1919145508 43.3895656752 0.0000000000
122 1 1.7535313616 45.1460698251 1.8075000000
123 1 1.3151481725 46.9020444673 3.6150000000
124 1 0.8767649833 48.6576008207 5.4225000000
125 1 0.4383817942 50.4128228044 7.2300000000
126 1 4.8222134863 40.3035496762 -5.4225000000
127 1 4.3838302972 42.0623884106 -3.6150000000
128 1 3.9454471081 43.8202817420 -1.8075000000
129 1 3.5070639189 45.5774279888 0.0000000000
130 1 3.0686807298 47.3339785297 1.8075000000
131 1 2.6302975406 49.0900496641 3.6150000000
132 1 2.1919143515 50.8457314899 5.4225000000
133 1 1.7535311623 52.6010944444 7.2300000000
134 1 6.1373628545 42.4933294926 -5.4225000000
135 1 5.6989796653 44.2517371685 -3.6150000000
136 1 5.2605964762 46.0093760954 -1.8075000000
137 1 4.8222132871 47.7663876959 0.0000000000
138 1 4.3838300979 49.5228845873 1.8075000000
139 1 3.9454469088 51.2789566047 3.6150000000
140 1 3.5070637196 53.0346757001 5.4225000000
141 1 3.0686805305 54.7900998099 7.2300000000
142 1 7.4525122226 44.6839553910 -5.4225000000
143 1 7.0141290335 46.4419467568 -3.6150000000
144 1 6.5757458444 48.1993078066 -1.8075000000
145 1 6.1373626552 49.9561414330 0.0000000000
146 1 5.6989794661 51.7125323295 1.8075000000
147 1 5.2605962769 53.4685501259 3.6150000000
148 1 4.8222130878 55.2242521353 5.4225000000
149 1 4.3838298986 56.9796856598 7.2300000000
150 1 8.7676615908 46.8751441442 -5.4225000000
151 1 8.3292784016 48.6327523135 -3.6150000000
152 1 7.8908952125 50.3898385093 -1.8075000000
153 1 7.4525120234 52.1464791144 0.0000000000
154 1 7.0141288342 53.9027386820 1.8075000000
155 1 6.5757456451 55.6586716021 3.6150000000
156 1 6.1373624559 57.4143236684 5.4225000000
157 1 5.6989792668 59.1697334697 7.2300000000
158 1 10.0828109589 49.0667165478 -5.4225000000
159 1 9.6444277698 50.8239792032 -3.6150000000
160 1 9.2060445806 52.5808052460 -1.8075000000
161 1 8.7676613915 54.3372524581 0.0000000000
162 1 8.3292782024 56.0933707273 1.8075000000
163 1 7.8908950132 57.8492029455 3.6150000000
164 1 11.3979603271 51.2585550579 -5.4225000000
165 1 10.9595771379 53.0155088894 -3.6150000000
166 1 10.5211939488 54.7720940114 -1.8075000000
167 1 10.0828107597 56.5283548904 0.0000000000
168 1 9.6444275705 58.2843305990 1.8075000000
169 1 12.7131096952 53.4505802770 -5.4225000000
170 1 12.2747265061 55.2072589051 -3.6150000000
171 1 11.8363433169 56.9636234050 -1.8075000000
172 1 11.3979601278 58.7197085286 0.0000000000
173 1 14.0282590634 55.6427372691 -5.4225000000
174 1 13.5898758742 57.3991706656 -3.6150000000
175 1 13.1514926851 59.1553342620 -1.8075000000
176 1 15.3434084315 57.8349872676 -5.4225000000
177 1 0.4383823920 28.0447822385 -5.4225000000
178 1 -0.0000007971 29.8101555293 -3.6150000000
179 1 1.7535317602 30.2183391772 -5.4225000000
180 1 1.3151485710 31.9843622650 -3.6150000000
181 1 0.8767653819 33.7460563966 -1.8075000000
182 1 0.4383821928 35.5051838419 0.0000000000
183 1 -0.0000009964 37.2626952216 1.8075000000
184 1 3.0686811283 32.4027768182 -5.4225000000
185 1 2.6302979392 34.1672625486 -3.6150000000
186 1 2.1919147500 35.9287475128 -1.8075000000
187 1 1.7535315609 37.6881976078 0.0000000000
188 1 1.3151483718 39.4462297302 1.8075000000
189 1 0.8767651826 41.2032469287 3.6150000000
190 1 0.4383819935 42.9595197907 5.4225000000
191 1 -0.0000011957 44.7152349191 7.2300000000
192 1 4.3838304965 34.5913786230 -5.4225000000
193 1 3.9454473073 36.3542900673 -3.6150000000
194 1 3.5070641182 38.1150837975 -1.8075000000
195 1 3.0686809290 39.8743160313 0.0000000000
196 1 2.6302977399 41.6323824561 1.8075000000
197 1 2.1919145508 43.3895656752 3.6150000000
198 1 1.7535313616 45.1460698251 5.4225000000
199 1 1.3151481725 46.9020444673 7.2300000000
200 1 5.6989798646 36.7819140535 -5.4225000000
201 1 5.2605966755 38.5435050470 -3.6150000000
202 1 4.8222134863 40.3035496762 -1.8075000000
203 1 4.3838302972 42.0623884106 0.0000000000
204 1 3.9454471081 43.8202817420 1.8075000000
205 1 3.5070639189 45.5774279888 3.6150000000
206 1 3.0686807298 47.3339785297 5.4225000000
207 1 2.6302975406 49.0900496641 7.2300000000
208 1 7.0141292328 38.9734563368 -5.4225000000
209 1 6.5757460436 40.7339758748 -3.6150000000
210 1 6.1373628545 42.4933294926 -1.8075000000
211 1 5.6989796653 44.2517371685 0.0000000000
212 1 5.2605964762 46.0093760954 1.8075000000
213 1 4.8222132871 47.7663876959 3.6150000000
214 1 4.3838300979 49.5228845873 5.4225000000
215 1 3.9454469088 51.2789566047 7.2300000000
216 1 8.3292786009 41.1655599017 -5.4225000000
217 1 7.8908954118 42.9252093326 -3.6150000000
218 1 7.4525122226 44.6839553910 -1.8075000000
219 1 7.0141290335 46.4419467568 0.0000000000
220 1 6.5757458444 48.1993078066 1.8075000000
221 1 6.1373626552 49.9561414330 3.6150000000
222 1 5.6989794661 51.7125323295 5.4225000000
223 1 5.2605962769 53.4685501259 7.2300000000
224 1 9.6444279691 43.3579882119 -5.4225000000
225 1 9.2060447799 45.1169242113 -3.6150000000
226 1 8.7676615908 46.8751441442 -1.8075000000
227 1 8.3292784016 48.6327523135 0.0000000000
228 1 7.8908952125 50.3898385093 1.8075000000
229 1 7.4525120234 52.1464791144 3.6150000000
230 1 7.0141288342 53.9027386820 5.4225000000
231 1 6.5757456451 55.6586716021 7.2300000000
232 1 10.9595773372 45.5506066296 -5.4225000000
233 1 10.5211941481 47.3089508460 -3.6150000000
234 1 10.0828109589 49.0667165478 -1.8075000000
235 1 9.6444277698 50.8239792032 0.0000000000
236 1 9.2060445806 52.5808052460 1.8075000000
237 1 8.7676613915 54.3372524581 3.6150000000
238 1 8.3292782024 56.0933707273 5.4225000000
239 1 7.8908950132 57.8492029455 7.2300000000
240 1 12.2747267054 47.7433345843 -5.4225000000
241 1 11.8363435162 49.5011823024 -3.6150000000
242 1 11.3979603271 51.2585550579 -1.8075000000
243 1 10.9595771379 53.0155088894 0.0000000000
244 1 10.5211939488 54.7720940114 1.8075000000
245 1 10.0828107597 56.5283548904 3.6150000000
246 1 9.6444275705 58.2843305990 5.4225000000
247 1 13.5898760735 49.9361220976 -5.4225000000
248 1 13.1514928844 51.6935488526 -3.6150000000
249 1 12.7131096952 53.4505802770 -1.8075000000
250 1 12.2747265061 55.2072589051 0.0000000000
251 1 11.8363433169 56.9636234050 1.8075000000
252 1 11.3979601278 58.7197085286 3.6150000000
253 1 14.9050254417 52.1289373834 -5.4225000000
254 1 14.4666422525 53.8860038074 -3.6150000000
255 1 14.0282590634 55.6427372691 -1.8075000000
256 1 13.5898758742 57.3991706656 0.0000000000
257 1 13.1514926851 59.1553342620 1.8075000000
258 1 16.2201748098 54.3217599059 -5.4225000000
259 1 15.7817916207 56.0785152535 -3.6150000000
260 1 15.3434084315 57.8349872676 -1.8075000000
261 1 17.5353241780 56.5145763039 -5.4225000000
262 1 17.0969409888 58.2710610337 -3.6150000000
263 1 18.8504735461 58.7073779054 -5.4225000000
264 2 0.0000005978 22.7960069471 -5.4225000000
265 1 1.3151487703 24.4352074495 -5.4225000000
266 1 0.8767655812 26.2648501160 -3.6150000000
267 1 0.4383823920 28.0447822385 -1.8075000000
268 1 -0.0000007971 29.8101555293 0.0000000000
269 1 2.6302981385 26.6562203569 -5.4225000000
270 1 2.1919149493 28.4445261244 -3.6150000000
271 1 1.7535317602 30.2183391772 -1.8075000000
272 1 1.3151485710 31.9843622650 0.0000000000
273 1 0.8767653819 33.7460563966 1.8075000000
274 1 0.4383821928 35.5051838419 3.6150000000
275 1 -0.0000009964 37.2626952216 5.4225000000
276 1 3.9454475066 28.8579676632 -5.4225000000
277 1 3.5070643175 30.6337702767 -3.6150000000
278 1 3.0686811283 32.4027768182 -1.8075000000
279 1 2.6302979392 34.1672625486 0.0000000000
280 1 2.1919147500 35.9287475128 1.8075000000
281 1 1.7535315609 37.6881976078 3.6150000000
282 1 1.3151483718 39.4462297302 5.4225000000
283 1 0.8767651826 41.2032469287 7.2300000000
284 1 5.2605968748 31.0558726818 -5.4225000000
285 1 4.8222136856 32.8255778474 -3.6150000000
286 1 4.3838304965 34.5913786230 -1.8075000000
287 1 3.9454473073 36.3542900673 0.0000000000
288 1 3.5070641182 38.1150837975 1.8075000000
289 1 3.0686809290 39.8743160313 3.6150000000
290 1 2.6302977399 41.6323824561 5.4225000000
291 1 2.1919145508 43.3895656752 7.2300000000
292 1 6.5757462429 33.2522512741 -5.4225000000
293 1 6.1373630538 35.0183403233 -3.6150000000
294 1 5.6989798646 36.7819140535 -1.8075000000
295 1 5.2605966755 38.5435050470 0.0000000000
296 1 4.8222134863 40.3035496762 1.8075000000
297 1 4.3838302972 42.0623884106 3.6150000000
298 1 3.9454471081 43.8202817420 5.4225000000
299 1 3.5070639189 45.5774279888 7.2300000000
300 1 7.8908956111 35.4478064464 -5.4225000000
301 1 7.4525124219 37.2115035461 -3.6150000000
302 1 7.0141292328 38.9734563368 -1.8075000000
303 1 6.5757460436 40.7339758748 0.0000000000
304 1 6.1373628545 42.4933294926 1.8075000000
305 1 5.6989796653 44.2517371685 3.6150000000
306 1 5.2605964762 46.0093760954 5.4225000000
307 1 4.8222132871 47.7663876959 7.2300000000
308 1 9.2060449792 37.6428328983 -5.4225000000
309 1 8.7676617901 39.4048330882 -3.6150000000
310 1 8.3292786009 41.1655599017 -1.8075000000
311 1 7.8908954118 42.9252093326 0.0000000000
312 1 7.4525122226 44.6839553910 1.8075000000
313 1 7.0141290335 46.4419467568 3.6150000000
314 1 6.5757458444 48.1993078066 5.4225000000
315 1 6.1373626552 49.9561414330 7.2300000000
316 1 10.5211943474 39.8374811604 -5.4225000000
317 1 10.0828111582 41.5982174137 -3.6150000000
318 1 9.6444279691 43.3579882119 -1.8075000000
319 1 9.2060447799 45.1169242113 0.0000000000
320 1 8.7676615908 46.8751441442 1.8075000000
321 1 8.3292784016 48.6327523135 3.6150000000
322 1 7.8908952125 50.3898385093 5.4225000000
323 1 7.4525120234 52.1464791144 7.2300000000
324 1 11.8363437155 42.0318393449 -5.4225000000
325 1 11.3979605264 43.7915997855 -3.6150000000
326 1 10.9595773372 45.5506066296 -1.8075000000
327 1 10.5211941481 47.3089508460 0.0000000000
328 1 10.0828109589 49.0667165478 1.8075000000
329 1 9.6444277698 50.8239792032 3.6150000000
330 1 9.2060445806 52.5808052460 5.4225000000
331 1 8.7676613915 54.3372524581 7.2300000000
332 1 13.1514930836 44.2259644006 -5.4225000000
333 1 12.7131098945 45.9849504702 -3.6150000000
334 1 12.2747267054 47.7433345843 -1.8075000000
335 1 11.8363435162 49.5011823024 0.0000000000
336 1 11.3979603271 51.2585550579 1.8075000000
337 1 10.9595771379 53.0155088894 3.6150000000
338 1 10.5211939488 54.7720940114 5.4225000000
339 1 10.0828107597 56.5283548904 7.2300000000
340 1 14.4666424518 46.4198959557 -5.4225000000
341 1 14.0282592627 48.1782539954 -3.6150000000
342 1 13.5898760735 49.9361220976 -1.8075000000
343 1 13.1514928844 51.6935488526 0.0000000000
344 1 12.7131096952 53.4505802770 1.8075000000
345 1 12.2747265061 55.2072589051 3.6150000000
346 1 11.8363433169 56.9636234050 5.4225000000
347 1 11.3979601278 58.7197085286 7.2300000000
348 1 15.7817918199 48.6136631656 -5.4225000000
349 1 15.3434086308 50.3715027896 -3.6150000000
350 1 14.9050254417 52.1289373834 -1.8075000000
351 1 14.4666422525 53.8860038074 0.0000000000
352 1 14.0282590634 55.6427372691 1.8075000000
353 1 13.5898758742 57.3991706656 3.6150000000
354 1 13.1514926851 59.1553342620 5.4225000000
355 1 17.0969411881 50.8072884077 -5.4225000000
356 1 16.6585579990 52.5646937955 -3.6150000000
357 1 16.2201748098 54.3217599059 -1.8075000000
358 1 15.7817916207 56.0785152535 0.0000000000
359 1 15.3434084315 57.8349872676 1.8075000000
360 1 18.4120905562 53.0007894246 -5.4225000000
361 1 17.9737073671 54.7578265779 -3.6150000000
362 1 17.5353241780 56.5145763039 -1.8075000000
363 1 17.0969409888 58.2710610337 0.0000000000
364 1 19.7272399244 55.1941806426 -5.4225000000
365 1 19.2888567352 56.9509022241 -3.6150000000
366 1 18.8504735461 58.7073779054 -1.8075000000
367 1 21.0423892925 57.3874740260 -5.4225000000
368 1 20.6040061034 59.1439226891 -3.6150000000
369 2 1.3151499660 20.6625395006 -5.4225000000
370 2 0.8767667768 18.8779403730 -3.6150000000
371 2 0.0000005978 22.7960069471 -1.8075000000
372 1 2.1919151486 20.7160892354 -5.4225000000
373 1 1.7535319595 22.5368027667 -3.6150000000
374 1 1.3151487703 24.4352074495 -1.8075000000
375 1 0.8767655812 26.2648501160 0.0000000000
376 1 0.4383823920 28.0447822385 1.8075000000
377 1 -0.0000007971 29.8101555293 3.6150000000
378 1 3.5070645167 23.0199447488 -5.4225000000
379 1 3.0686813276 24.8449427331 -3.6150000000
380 1 2.6302981385 26.6562203569 -1.8075000000
381 1 2.1919149493 28.4445261244 0.0000000000
382 1 1.7535317602 30.2183391772 1.8075000000
383 1 1.3151485710 31.9843622650 3.6150000000
384 1 0.8767653819 33.7460563966 5.4225000000
385 1 0.4383821928 35.5051838419 7.2300000000
386 1 4.8222138849 25.2771708070 -5.4225000000
387 1 4.3838306958 27.0726671292 -3.6150000000
388 1 3.9454475066 28.8579676632 -1.8075000000
389 1 3.5070643175 30.6337702767 0.0000000000
390 1 3.0686811283 32.4027768182 1.8075000000
391 1 2.6302979392 34.1672625486 3.6150000000
392 1 2.1919147500 35.9287475128 5.4225000000
393 1 1.7535315609 37.6881976078 7.2300000000
394 1 6.1373632530 27.5005673174 -5.4225000000
395 1 5.6989800639 29.2811197759 -3.6150000000
396 1 5.2605968748 31.0558726818 -1.8075000000
397 1 4.8222136856 32.8255778474 0.0000000000
398 1 4.3838304965 34.5913786230 1.8075000000
399 1 3.9454473073 36.3542900673 3.6150000000
400 1 3.5070641182 38.1150837975 5.4225000000
401 1 3.0686809290 39.8743160313 7.2300000000
402 1 7.4525126212 29.7103181837 -5.4225000000
403 1 7.0141294320 31.4830667257 -3.6150000000
404 1 6.5757462429 33.2522512741 -1.8075000000
405 1 6.1373630538 35.0183403233 0.0000000000
406 1 5.6989798646 36.7819140535 1.8075000000
407 1 5.2605966755 38.5435050470 3.6150000000
408 1 4.8222134863 40.3035496762 5.4225000000
409 1 4.3838302972 42.0623884106 7.2300000000
410 1 8.7676619893 31.9138940413 -5.4225000000
411 1 8.3292788002 33.6820334919 -3.6150000000
412 1 7.8908956111 35.4478064464 -1.8075000000
413 1 7.4525124219 37.2115035461 0.0000000000
414 1 7.0141292328 38.9734563368 1.8075000000
415 1 6.5757460436 40.7339758748 3.6150000000
416 1 6.1373628545 42.4933294926 5.4225000000
417 1 5.6989796653 44.2517371685 7.2300000000
418 1 10.0828113575 34.1142070748 -5.4225000000
419 1 9.6444281683 35.8793535397 -3.6150000000
420 1 9.2060449792 37.6428328983 -1.8075000000
421 1 8.7676617901 39.4048330882 0.0000000000
422 1 8.3292786009 41.1655599017 1.8075000000
423 1 7.8908954118 42.9252093326 3.6150000000
424 1 7.4525122226 44.6839553910 5.4225000000
425 1 7.0141290335 46.4419467568 7.2300000000
426 1 11.3979607256 36.3125783413 -5.4225000000
427 1 10.9595775365 38.0756437446 -3.6150000000
428 1 10.5211943474 39.8374811604 -1.8075000000
429 1 10.0828111582 41.5982174137 0.0000000000
430 1 9.6444279691 43.3579882119 1.8075000000
431 1 9.2060447799 45.1169242113 3.6150000000
432 1 8.7676615908 46.8751441442 5.4225000000
433 1 8.3292784016 48.6327523135 7.2300000000
434 1 12.7131100938 38.5096877060 -5.4225000000
435 1 12.2747269046 40.2712315924 -3.6150000000
436 1 11.8363437155 42.0318393449 -1.8075000000
437 1 11.3979605264 43.7915997855 0.0000000000
438 1 10.9595773372 45.5506066296 1.8075000000
439 1 10.5211941481 47.3089508460 3.6150000000
440 1 10.0828109589 49.0667165478 5.4225000000
441 1 9.6444277698 50.8239792032 7.2300000000
442 1 14.0282594619 40.7059208891 -5.4225000000
443 1 13.5898762728 42.4663092674 -3.6150000000
444 1 13.1514930836 44.2259644006 -1.8075000000
445 1 12.7131098945 45.9849504702 0.0000000000
446 1 12.2747267054 47.7433345843 1.8075000000
447 1 11.8363435162 49.5011823024 3.6150000000
448 1 11.3979603271 51.2585550579 5.4225000000
449 1 10.9595771379 53.0155088894 7.2300000000
450 1 15.3434088301 42.9015140048 -5.4225000000
451 1 14.9050256409 44.6609984958 -3.6150000000
452 1 14.4666424518 46.4198959557 -1.8075000000
453 1 14.0282592627 48.1782539954 0.0000000000
454 1 13.5898760735 49.9361220976 1.8075000000
455 1 13.1514928844 51.6935488526 3.6150000000
456 1 12.7131096952 53.4505802770 5.4225000000
457 1 12.2747265061 55.2072589051 7.2300000000
458 1 16.6585581982 45.0966205823 -5.4225000000
459 1 16.2201750091 46.8553811339 -3.6150000000
460 1 15.7817918199 48.6136631656 -1.8075000000
461 1 15.3434086308 50.3715027896 0.0000000000
462 1 14.9050254417 52.1289373834 1.8075000000
463 1 14.4666422525 53.8860038074 3.6150000000
464 1 14.0282590634 55.6427372691 5.4225000000
465 1 13.5898758742 57.3991706656 7.2300000000
466 1 17.9737075664 47.2913454501 -5.4225000000
467 1 17.5353243772 49.0495149311 -3.6150000000
468 1 17.0969411881 50.8072884077 -1.8075000000
469 1 16.6585579990 52.5646937955 0.0000000000
470 1 16.2201748098 54.3217599059 1.8075000000
471 1 15.7817916207 56.0785152535 3.6150000000
472 1 15.3434084315 57.8349872676 5.4225000000
473 1 19.2888569345 49.4857631165 -5.4225000000
474 1 18.8504737454 51.2434422495 -3.6150000000
475 1 18.4120905562 53.0007894246 -1.8075000000
476 1 17.9737073671 54.7578265779 0.0000000000
477 1 17.5353241780 56.5145763039 1.8075000000
478 1 17.0969409888 58.2710610337 3.6150000000
479 1 20.6040063027 51.6799283390 -5.4225000000
480 1 20.1656231135 53.4371951761 -3.6150000000
481 1 19.7272399244 55.1941806426 -1.8075000000
482 1 19.2888567352 56.9509022241 0.0000000000
483 1 18.8504735461 58.7073779054 1.8075000000
484 1 21.9191556708 53.8738825065 -5.4225000000
485 1 21.4807724817 55.6307986698 -3.6150000000
486 1 21.0423892925 57.3874740260 -1.8075000000
487 1 20.6040061034 59.1439226891 0.0000000000
488 1 23.2343050390 56.0676576580 -5.4225000000
489 1 22.7959218498 57.8242725818 -3.6150000000
490 1 24.5494544071 58.2612791054 -5.4225000000
491 2 0.8767665776 11.4115972639 -5.4225000000
492 2 0.0000003986 15.3434671726 -3.6150000000
493 1 1.7535321587 14.9416464420 -5.4225000000
494 2 0.4383835877 17.1076840353 -5.4225000000
495 2 1.3151499660 20.6625395006 -1.8075000000
496 2 0.8767667768 18.8779403730 0.0000000000
497 2 0.0000005978 22.7960069471 1.8075000000
498 1 3.0686815269 17.1753103742 -5.4225000000
499 1 2.6302983377 18.9391046127 -3.6150000000
500 1 2.1919151486 20.7160892354 -1.8075000000
501 1 1.7535319595 22.5368027667 0.0000000000
502 1 1.3151487703 24.4352074495 1.8075000000
503 1 0.8767655812 26.2648501160 3.6150000000
504 1 0.4383823920 28.0447822385 5.4225000000
505 1 -0.0000007971 29.8101555293 7.2300000000
506 1 4.3838308950 19.4257758024 -5.4225000000
507 1 3.9454477059 21.2115509133 -3.6150000000
508 1 3.5070645167 23.0199447488 -1.8075000000
509 1 3.0686813276 24.8449427331 0.0000000000
510 1 2.6302981385 26.6562203569 1.8075000000
511 1 2.1919149493 28.4445261244 3.6150000000
512 1 1.7535317602 30.2183391772 5.4225000000
513 1 1.3151485710 31.9843622650 7.2300000000
514 1 5.6989802632 21.6830110844 -5.4225000000
515 1 5.2605970740 23.4772576094 -3.6150000000
516 1 4.8222138849 25.2771708070 -1.8075000000
517 1 4.3838306958 27.0726671292 0.0000000000
518 1 3.9454475066 28.8579676632 1.8075000000
519 1 3.5070643175 30.6337702767 3.6150000000
520 1 3.0686811283 32.4027768182 5.4225000000
521 1 2.6302979392 34.1672625486 7.2300000000
522 1 7.0141296313 23.9275522611 -5.4225000000
523 1 6.5757464422 25.7149801328 -3.6150000000
524 1 6.1373632530 27.5005673174 -1.8075000000
525 1 5.6989800639 29.2811197759 0.0000000000
526 1 5.2605968748 31.0558726818 1.8075000000
527 1 4.8222136856 32.8255778474 3.6150000000
528 1 4.3838304965 34.5913786230 5.4225000000
529 1 3.9454473073 36.3542900673 7.2300000000
530 1 8.3292789995 26.1549029519 -5.4225000000
531 1 7.8908958103 27.9339808058 -3.6150000000
532 1 7.4525126212 29.7103181837 -1.8075000000
533 1 7.0141294320 31.4830667257 0.0000000000
534 1 6.5757462429 33.2522512741 1.8075000000
535 1 6.1373630538 35.0183403233 3.6150000000
536 1 5.6989798646 36.7819140535 5.4225000000
537 1 5.2605966755 38.5435050470 7.2300000000
538 1 9.6444283676 28.3703281316 -5.4225000000
539 1 9.2060451785 30.1432578175 -3.6150000000
540 1 8.7676619893 31.9138940413 -1.8075000000
541 1 8.3292788002 33.6820334919 0.0000000000
542 1 7.8908956111 35.4478064464 1.8075000000
543 1 7.4525124219 37.2115035461 3.6150000000
544 1 7.0141292328 38.9734563368 5.4225000000
545 1 6.5757460436 40.7339758748 7.2300000000
546 1 10.9595777358 30.5785768418 -5.4225000000
547 1 10.5211945466 32.3472737592 -3.6150000000
548 1 10.0828113575 34.1142070748 -1.8075000000
549 1 9.6444281683 35.8793535397 0.0000000000
550 1 9.2060449792 37.6428328983 1.8075000000
551 1 8.7676617901 39.4048330882 3.6150000000
552 1 8.3292786009 41.1655599017 5.4225000000
553 1 7.8908954118 42.9252093326 7.2300000000
554 1 12.2747271039 32.7824556921 -5.4225000000
555 1 11.8363439148 34.5481909356 -3.6150000000
556 1 11.3979607256 36.3125783413 -1.8075000000
557 1 10.9595775365 38.0756437446 0.0000000000
558 1 10.5211943474 39.8374811604 1.8075000000
559 1 10.0828111582 41.5982174137 3.6150000000
560 1 9.6444279691 43.3579882119 5.4225000000
561 1 9.2060447799 45.1169242113 7.2300000000
562 1 13.5898764721 34.9835412878 -5.4225000000
563 1 13.1514932829 36.7471362400 -3.6150000000
564 1 12.7131100938 38.5096877060 -1.8075000000
565 1 12.2747269046 40.2712315924 0.0000000000
566 1 11.8363437155 42.0318393449 1.8075000000
567 1 11.3979605264 43.7915997855 3.6150000000
568 1 10.9595773372 45.5506066296 5.4225000000
569 1 10.5211941481 47.3089508460 7.2300000000
570 1 14.9050258402 37.1827473436 -5.4225000000
571 1 14.4666426511 38.9447450179 -3.6150000000
572 1 14.0282594619 40.7059208891 -1.8075000000
573 1 13.5898762728 42.4663092674 0.0000000000
574 1 13.1514930836 44.2259644006 1.8075000000
575 1 12.7131098945 45.9849504702 3.6150000000
576 1 12.2747267054 47.7433345843 5.4225000000
577 1 11.8363435162 49.5011823024 7.2300000000
578 1 16.2201752084 39.3806295497 -5.4225000000
579 1 15.7817920192 41.1414009160 -3.6150000000
580 1 15.3434088301 42.9015140048 -1.8075000000
581 1 14.9050256409 44.6609984958 0.0000000000
582 1 14.4666424518 46.4198959557 1.8075000000
583 1 14.0282592627 48.1782539954 3.6150000000
584 1 13.5898760735 49.9361220976 5.4225000000
585 1 13.1514928844 51.6935488526 7.2300000000
586 1 17.5353245765 41.5775424196 -5.4225000000
587 1 17.0969413874 43.3373492716 -3.6150000000
588 1 16.6585581982 45.0966205823 -1.8075000000
589 1 16.2201750091 46.8553811339 0.0000000000
590 1 15.7817918199 48.6136631656 1.8075000000
591 1 15.3434086308 50.3715027896 3.6150000000
592 1 14.9050254417 52.1289373834 5.4225000000
593 1 14.4666422525 53.8860038074 7.2300000000
594 1 18.8504739447 43.7737220648 -5.4225000000
595 1 18.4120907555 45.5327546412 -3.6150000000
596 1 17.9737075664 47.2913454501 -1.8075000000
597 1 17.5353243772 49.0495149311 0.0000000000
598 1 17.0969411881 50.8072884077 1.8075000000
599 1 16.6585579990 52.5646937955 3.6150000000
600 1 16.2201748098 54.3217599059 5.4225000000
601 1 15.7817916207 56.0785152535 7.2300000000
602 1 20.1656233128 45.9693317525 -5.4225000000
603 1 19.7272401237 47.7277318899 -3.6150000000
604 1 19.2888569345 49.4857631165 -1.8075000000
605 1 18.8504737454 51.2434422495 0.0000000000
606 1 18.4120905562 53.0007894246 1.8075000000
607 1 17.9737073671 54.7578265779 3.6150000000
608 1 17.5353241780 56.5145763039 5.4225000000
609 1 17.0969409888 58.2710610337 7.2300000000
610 1 21.4807726810 48.1644881031 -5.4225000000
611 1 21.0423894918 49.9223639370 -3.6150000000
612 1 20.6040063027 51.6799283390 -1.8075000000
613 1 20.1656231135 53.4371951761 0.0000000000
614 1 19.7272399244 55.1941806426 1.8075000000
615 1 19.2888567352 56.9509022241 3.6150000000
616 1 18.8504735461 58.7073779054 5.4225000000
617 1 22.7959220491 50.3592767869 -5.4225000000
618 1 22.3575388600 52.1167123738 -3.6150000000
619 1 21.9191556708 53.8738825065 -1.8075000000
620 1 21.4807724817 55.6307986698 0.0000000000
621 1 21.0423892925 57.3874740260 1.8075000000
622 1 20.6040061034 59.1439226891 3.6150000000
623 1 24.1110714173 52.5537622880 -5.4225000000
624 1 23.6726882281 54.3108240811 -3.6150000000
625 1 23.2343050390 56.0676576580 -1.8075000000
626 1 22.7959218498 57.8242725818 0.0000000000
627 1 25.4262207854 54.7479941820 -5.4225000000
628 1 24.9878375963 56.5047355026 -3.6150000000
629 1 24.5494544071 58.2612791054 -1.8075000000
630 1 26.7413701536 56.9420112960 -5.4225000000
631 1 26.3029869644 58.6984754910 -3.6150000000
632 1 28.0565195217 59.1358445385 -5.4225000000
633 2 0.0000001993 7.8909274674 -5.4225000000
634 2 0.4383833884 9.6507684113 -3.6150000000
635 2 1.3151497667 13.1740049548 -3.6150000000
636 2 0.8767665776 11.4115972639 -1.8075000000
637 2 0.0000003986 15.3434671726 0.0000000000