LAMMPS data file via write_data, version 29 Aug 2024, timestep = 555, units = metal

29248 atoms
2 atom types

-100.1 100.1 xlo xhi
-59.6201706 59.6201706 ylo yhi
-7.23 7.23 zlo zhi
0 0 0 xy xz yz

Masses

1 63.55
2 63.55

Atoms # atomic

1 1 0.6661396221300464 58.083329179480536 -6.77848589289245 0 0 0
2 1 0.2867838892415193 52.426276748419745 -6.778488011199651 0 0 0
3 1 1.3395839579046651 54.585514991376634 -6.77848796673333 0 0 0
4 1 0.9860662975737853 56.21050868024816 -4.970987146183525 0 0 0
5 1 0.6661396280583887 58.083329181111985 -3.163485904951173 0 0 0
6 1 2.7673928494208297 56.70438340477522 -6.7784887060287256 0 0 0
7 1 2.3593349935370895 58.45803689469182 -4.970987857470613 0 0 0
8 1 4.064770026052301 58.92039509616142 -6.778489412172946 0 0 0
9 1 0.9738481364833831 48.75420008901303 -6.778487649105295 0 0 0
10 1 0.6559449780016848 50.627754586725125 -4.970986492544602 0 0 0
11 1 0.2867838907273921 52.4262767499335 -3.163488010818272 0 0 0
12 1 2.3482181211171564 51.00080505821281 -6.778488425707025 0 0 0
13 1 1.88523059003019 52.85808025873252 -4.970988590825029 0 0 0
14 1 1.3395839570802366 54.5855149941496 -3.1634879649747134 0 0 0
15 1 0.9860663091375415 56.21050866708517 -1.355987145979954 0 0 0
16 1 0.6661396331273295 58.08332918261615 0.4515141077510401 0 0 0
17 1 3.6019149276364146 53.23318090449782 -6.778489707012951 0 0 0
18 1 3.1936872983428515 54.98311361844622 -4.970989360237922 0 0 0
19 1 2.7673928479954952 56.70438340540701 -3.1634887045703377 0 0 0
20 1 2.3593349973687054 58.4580368937765 -1.355987857176663 0 0 0
21 1 4.954438308546912 55.3951887154358 -6.778490641187141 0 0 0
22 1 4.525327930007734 57.15167203090554 -4.970990043563292 0 0 0
23 1 4.064770025430647 58.92039509572543 -3.163489411765549 0 0 0
24 1 6.261271402880226 57.587114747089835 -6.778491380514834 0 0 0
25 1 5.814477496442763 59.34761525639524 -4.9709909328425725 0 0 0
26 1 0.6450538634713325 43.16692722937275 -6.778487407826955 0 0 0
27 1 0.27741938855025694 44.96727040907788 -4.97098885733857 0 0 0
28 1 1.8739253623407848 45.39709863861271 -6.7784892772597605 0 0 0
29 1 1.3267694949337852 47.12762828752225 -4.970988436055129 0 0 0
30 1 0.9738481386829534 48.754200087050144 -3.163487648236801 0 0 0
31 1 0.6559449804787505 50.62775458838856 -1.3559864927556176 0 0 0
32 1 0.2867838922457224 52.426276750684984 0.45151198877925725 0 0 0
33 1 3.1800607750362673 47.52221612693962 -6.778489824380137 0 0 0
34 1 2.755052132087542 49.24539403238004 -4.9709891590220465 0 0 0
35 1 2.348218121191991 51.00080505806225 -3.16348842410428 0 0 0
36 1 1.8852305885878593 52.85808025865827 -1.3559885913239065 0 0 0
37 1 1.3395839575683368 54.585514995045905 0.45151203306463394 0 0 0
38 1 0.9860663094321609 56.21050866835224 2.259012852499908 0 0 0
39 1 0.6661396275992928 58.08332918092578 4.066514118884469 0 0 0
40 1 4.511893567792029 49.69039057150476 -6.778490591790782 0 0 0
41 1 4.052308776097831 51.461571701430465 -4.970989980257432 0 0 0
42 1 3.6019149282358853 53.233180904159944 -3.1634897078121167 0 0 0
43 1 3.193687295628777 54.98311361957726 -1.3559893604276554 0 0 0
44 1 2.7673928462226343 56.70438340589025 0.4515112939310484 0 0 0
45 1 2.359334997413953 58.45803689350948 2.259012138101937 0 0 0
46 1 5.800351827178119 51.88699937868386 -6.778491510148864 0 0 0
47 1 5.371092770672661 53.64063257442262 -4.9709911007252945 0 0 0
48 1 4.954438309085134 55.39518871502961 -3.1634906416158506 0 0 0
49 1 4.525327929469853 57.151672031090406 -1.355990043411033 0 0 0
50 1 4.064770024720076 58.920395095691724 0.45151058783760073 0 0 0
51 1 7.131381217332418 54.0622561642974 -6.7784924290092885 0 0 0
52 1 6.702157102337992 55.82145965469197 -4.970991909556698 0 0 0
53 1 6.261271402718435 57.58711474717881 -3.163491379769026 0 0 0
54 1 5.814477496975755 59.347615256309034 -1.3559909323323172 0 0 0
55 1 8.447053345461711 56.25022944597564 -6.778493290115087 0 0 0
56 1 8.00876323251893 58.01178057868679 -4.970992784090335 0 0 0
57 1 9.762584572115927 58.43501553894651 -6.778494239941372 0 0 0
58 1 0.2677906982233509 37.49931545606204 -6.778489157474795 0 0 0
59 1 1.3097492028531121 39.662503658639984 -6.778489063254986 0 0 0
60 1 0.9579397941218701 41.292560618508155 -4.970988411222365 0 0 0
61 1 0.6450538668198647 43.16692722880659 -3.163487422222674 0 0 0
62 1 0.27741938325995363 44.9672704165994 -1.3559888558417261 0 0 0
63 1 2.7395873719693498 41.777427325479515 -6.778489944266322 0 0 0
64 1 2.3356416553603196 43.53625333252133 -4.970989308458501 0 0 0
65 1 1.8739253620210263 45.3970986378768 -3.1634892801049728 0 0 0
66 1 1.326769494275993 47.12762828913397 -1.3559884363763157 0 0 0
67 1 0.973848140511862 48.75420008477882 0.4515123509592662 0 0 0
68 1 0.655944980402964 50.62775458770968 2.2590135117955037 0 0 0
69 1 0.2867838911540588 52.426276750111576 4.066511988248663 0 0 0
70 1 4.037264290045414 43.993429349297166 -6.7784907894036595 0 0 0
71 1 3.587923589148616 45.769215851969584 -4.970990336767993 0 0 0
72 1 3.1800607746395 47.522216127131536 -3.1634898252638117 0 0 0
73 1 2.7550521316043586 49.245394031407024 -1.3559891588225435 0 0 0
74 1 2.3482181215789097 51.000805058588234 0.4515115743423063 0 0 0
75 1 1.8852305891667527 52.858080258016166 2.2590114097415213 0 0 0
76 1 1.339583957029447 54.58551499380375 4.066512031215615 0 0 0
77 1 0.9860662964548936 56.21050867980471 5.874012852812079 0 0 0
78 1 5.354735790078919 46.173174849378434 -6.778491715803816 0 0 0
79 1 4.939665767235837 47.93119763682373 -4.970991140527412 0 0 0
80 1 4.511893567910363 49.69039057209354 -3.163490591552536 0 0 0
81 1 4.052308775968342 51.46157170160672 -1.3559899811386795 0 0 0
82 1 3.6019149280951552 53.23318090379683 0.4515102929669645 0 0 0
83 1 3.193687295213252 54.98311362024064 2.259010640348126 0 0 0
84 1 2.767392848136055 56.70438340539176 4.0665112942059025 0 0 0
85 1 2.3593349933324532 58.458036894990606 5.87401213870502 0 0 0
86 1 6.68554703407834 48.3545470965667 -6.778492482164623 0 0 0
87 1 6.2461541799814455 50.12360055601885 -4.970991950090982 0 0 0
88 1 5.80035182824497 51.88699937836653 -3.1634915100207146 0 0 0
89 1 5.371092770409788 53.640632573183204 -1.3559911009335672 0 0 0
90 1 4.954438309749463 55.39518871512566 0.45150935884292287 0 0 0
91 1 4.525327929507327 57.15167203149728 2.2590099567496718 0 0 0
92 1 4.064770025471006 58.92039509570295 4.066510588487893 0 0 0
93 1 7.991614907651751 50.546025451868665 -6.778493368681139 0 0 0
94 1 7.558899061407303 52.30614737379103 -4.9709929488574875 0 0 0
95 1 7.13138121715123 54.06225616501876 -3.1634924277490133 0 0 0
96 1 6.7021571014635555 55.821459653882734 -1.3559919096642614 0 0 0
97 1 6.261271403058231 57.58711474697454 0.4515086194621742 0 0 0
98 1 5.814477496724152 59.34761525616525 2.2590090673870042 0 0 0
99 1 9.31346056743051 52.72787178559032 -6.778494348833763 0 0 0
100 1 8.882687774628039 54.488202766781136 -4.970993828837119 0 0 0
101 1 8.447053345680331 56.25022944631876 -3.1634932902397193 0 0 0
102 1 8.008763231655138 58.01178057792274 -1.3559927846609692 0 0 0
103 1 10.631239715551985 54.914403104808265 -6.778495168002557 0 0 0
104 1 10.196342293162985 56.67581770211138 -4.970994662319466 0 0 0
105 1 9.762584571946675 58.43501553876522 -3.163494240368654 0 0 0
106 1 11.948256771277983 57.100423465544885 -6.778495889229281 0 0 0
107 1 11.516231491056644 58.85955669377264 -4.970995547952465 0 0 0
108 1 13.268517846514058 59.28536805571077 -6.778496805194297 0 0 0
109 1 0.9369160128791663 33.824434054976926 -6.778488779708706 0 0 0
110 1 0.6322230804479574 35.694931885022164 -4.970987703378108 0 0 0
111 1 0.2677905616618119 37.49931537069521 -3.1634891577311266 0 0 0
112 1 2.3202841349061174 36.05836364037524 -6.778489572008875 0 0 0
113 1 1.8603236742122107 37.92529905977806 -4.970989655362556 0 0 0
114 1 1.309749218930932 39.66250372514195 -3.1634890609254906 0 0 0
115 1 0.957939806703763 41.29256060598521 -1.3559884277538168 0 0 0
116 1 0.6450538752196593 43.166927232925154 0.45151258728908555 0 0 0
117 1 0.2774193799360489 44.96727041695545 2.2590111410778215 0 0 0
118 1 3.5688778220779227 38.29148236634553 -6.77849077927499 0 0 0
119 1 3.1615244988434057 40.05063863485541 -4.9709904821705 0 0 0
120 1 2.7395873632157475 41.7774273157274 -3.16348994507503 0 0 0
121 1 2.3356416609662176 43.53625333134044 -1.3559893069772608 0 0 0
122 1 1.8739253620827583 45.397098637207684 0.45151072158046385 0 0 0
123 1 1.3267694942309163 47.1276282880143 2.259011563200056 0 0 0
124 1 0.9738481389147609 48.75420008680201 4.066512351457072 0 0 0
125 1 0.6559449784107585 50.62775458753931 5.874013511701828 0 0 0
126 1 4.919197798306342 40.45289540559984 -6.778491791055705 0 0 0
127 1 4.4945826932562625 42.21749897820792 -4.970991412105546 0 0 0
128 1 4.037264291924643 43.99342935130107 -3.163490791179893 0 0 0
129 1 3.587923587751362 45.76921585206525 -1.3559903370936468 0 0 0
130 1 3.180060774096347 47.52221612771621 0.4515101755488426 0 0 0
131 1 2.755052131477953 49.24539403259302 2.259010840826152 0 0 0
132 1 2.3482181211102215 51.000805058117855 4.066511574112083 0 0 0
133 1 1.88523058925486 52.85808025929688 5.8740114090416595 0 0 0
134 1 6.225809103868329 42.64601927870721 -6.778492690225783 0 0 0
135 1 5.782367643409572 44.415013760239795 -4.9709922414582675 0 0 0
136 1 5.3547357905987525 46.17317484867339 -3.163491714030887 0 0 0
137 1 4.9396657673769795 47.93119763633643 -1.3559911415834567 0 0 0
138 1 4.511893567754839 49.69039057153068 0.45150940817419977 0 0 0
139 1 4.052308775913033 51.46157170141205 2.2590100197375618 0 0 0
140 1 3.601914928224332 53.233180904193766 4.066510292745652 0 0 0
141 1 3.193687299034991 54.983113617747954 5.874010640115084 0 0 0
142 1 7.537968534162886 44.83030169785501 -6.778493583180591 0 0 0
143 1 7.112796758609406 46.59132442509499 -4.970993048031654 0 0 0
144 1 6.685547034369094 48.354547097471844 -3.163492482802689 0 0 0
145 1 6.246154180016404 50.12360055510808 -1.355991949885642 0 0 0
146 1 5.800351827081471 51.886999378871586 0.4515084898508191 0 0 0
147 1 5.371092771251554 53.64063257412149 2.2590088990732053 0 0 0
148 1 4.954438309046836 55.39518871504617 4.066509358987687 0 0 0
149 1 4.5253279299533204 57.151672030504294 5.874009956887801 0 0 0
150 1 8.86169766994233 47.01421403638914 -6.778494392162799 0 0 0
151 1 8.428253774343403 48.780663038118384 -4.970993868343756 0 0 0
152 1 7.991614908577674 50.54602545144372 -3.1634933678882025 0 0 0
153 1 7.558899061410102 52.30614737367279 -1.3559929490994584 0 0 0
154 1 7.131381217034331 54.062256164388565 0.45150757096968525 0 0 0
155 1 6.702157102394736 55.82145965461171 2.2590080902517733 0 0 0
156 1 6.261271402733328 57.587114747202996 4.0665086201848935 0 0 0
157 1 5.8144774967382915 59.347615256519695 5.874009067929974 0 0 0
158 1 10.17523479397805 49.20399528183288 -6.778495236917777 0 0 0
159 1 9.74327975140858 50.967199458185654 -4.97099479534336 0 0 0
160 1 9.313460567103576 52.7278717857861 -3.163494349838175 0 0 0
161 1 8.882687775340386 54.48820276750023 -1.3559938286246422 0 0 0
162 1 8.447053345416009 56.250229445975116 0.4515067098636906 0 0 0
163 1 8.008763232457852 58.01178057875858 2.2590072158735084 0 0 0
164 1 11.494801332832694 51.3900644824921 -6.778496181776086 0 0 0
165 1 11.064171870861188 53.152240939058906 -4.9709957145616475 0 0 0
166 1 10.631239715217276 54.91440310494391 -3.163495168119473 0 0 0
167 1 10.196342292439468 56.67581770258109 -1.3559946618129188 0 0 0
168 1 9.762584572064611 58.435015538942444 0.45150576005650533 0 0 0
169 1 12.813731205385977 53.57762756105068 -6.778496967269357 0 0 0
170 1 12.38106213496846 55.339741345885194 -4.970996394443558 0 0 0
171 1 11.948256770936538 57.10042346569494 -3.1634958882425557 0 0 0
172 1 11.516231490765605 58.85955669384139 -1.3559955480122707 0 0 0
173 1 14.132168166031008 55.765122123555436 -6.778497677982343 0 0 0
174 1 13.700451239126522 57.52565780947692 -4.9709972186341025 0 0 0
175 1 13.26851784648612 59.28536805600836 -3.1634968049834025 0 0 0
176 1 15.452345868339265 57.95186770648231 -6.7784984953519105 0 0 0
177 1 0.6199323959765621 28.202502862639243 -6.778487808591612 0 0 0
178 1 0.2690324981170136 30.030730509904764 -4.970989400654199 0 0 0
179 1 1.844758949226346 30.417243360495426 -6.77848979477041 0 0 0
180 1 1.2962786146354688 32.18957662042515 -4.970989293647274 0 0 0
181 1 0.9369159999220358 33.82443407435721 -3.1634887886944054 0 0 0
182 1 0.6322230839268883 35.694931888842596 -1.3559877876119093 0 0 0
183 1 0.26779069972155867 37.49931546089659 0.45151084246822665 0 0 0
184 1 3.1297526495260115 32.5447215810868 -6.77849061296696 0 0 0
185 1 2.7198091125286936 34.29194380995123 -4.970990173891585 0 0 0
186 1 2.3202841276934976 36.05836362407236 -3.1634895699237906 0 0 0
187 1 1.8603236725649737 37.92529905953696 -1.3559895975364025 0 0 0
188 1 1.3097492023105133 39.66250366196399 0.45151093741162457 0 0 0
189 1 0.9579398081887263 41.29256060394342 2.2590115877449803 0 0 0
190 1 0.6450538689077518 43.166927229407 4.066512602989892 0 0 0
191 1 0.2774193868746977 44.96727041066682 5.87401114170752 0 0 0
192 1 4.464907085674142 34.71303409437413 -6.778491559896989 0 0 0
193 1 4.01586919451141 36.50567308253073 -4.970991043845399 0 0 0
194 1 3.568877835396961 38.2914823711915 -3.1634907783045723 0 0 0
195 1 3.161524495185631 40.050638636373556 -1.3559904864800143 0 0 0
196 1 2.739587368702601 41.77742732676531 0.4515100559747835 0 0 0
197 1 2.3356416601866385 43.5362533312671 2.25901068763516 0 0 0
198 1 1.8739253623663643 45.39709863776185 4.066510723477758 0 0 0
199 1 1.3267694948735738 47.12762828929373 5.874011562623515 0 0 0
200 1 5.752449064657 36.91629901471469 -6.778492485689819 0 0 0
201 1 5.3302722466938235 38.68696162048018 -4.970992179757279 0 0 0
202 1 4.919197797637139 40.452895402907565 -3.1634917910125804 0 0 0
203 1 4.494582692539936 42.217498977643594 -1.3559914108018465 0 0 0
204 1 4.03726428846079 43.99342934902318 0.45150921059329696 0 0 0
205 1 3.5879235896599226 45.76921585177943 2.2590096631022645 0 0 0
206 1 3.1800607745456375 47.5222161271254 4.066510175133214 0 0 0
207 1 2.755052132087215 49.24539403112227 5.874010841044973 0 0 0
208 1 7.083280702415024 39.097486789656294 -6.778493565100216 0 0 0
209 1 6.661462848978189 40.86989756465885 -4.9709931284860005 0 0 0
210 1 6.225809104977856 42.64601927858836 -3.163492688855396 0 0 0
211 1 5.7823676408519304 44.41501376021257 -1.3559922413017544 0 0 0
212 1 5.354735790237996 46.173174849405704 0.45150828418959754 0 0 0
213 1 4.9396657675000455 47.93119763674972 2.25900885949136 0 0 0
214 1 4.511893567970972 49.69039057208632 4.066509408566218 0 0 0
215 1 4.052308776182912 51.46157170160679 5.874010018904652 0 0 0
216 1 8.400251789372177 41.29128096994855 -6.778494463378403 0 0 0
217 1 7.967731813774151 43.064060513371906 -4.970993988940042 0 0 0
218 1 7.537968533186472 44.830301697397 -3.163493582687034 0 0 0
219 1 7.112796759408766 46.591324425854914 -1.3559930478739732 0 0 0
220 1 6.6855470340307335 48.354547096546916 0.4515075178222713 0 0 0
221 1 6.246154179978021 50.123600555980225 2.259008049925456 0 0 0
222 1 5.800351828239258 51.88699937835295 4.066508489950959 0 0 0
223 1 5.371092769774833 53.64063257351361 5.874008898860427 0 0 0
224 1 9.716211258483199 43.48211289170158 -6.778495306557068 0 0 0
225 1 9.289723761454937 45.248729867043316 -4.970994868199268 0 0 0
226 1 8.86169766941029 47.01421403607521 -3.1634943922908683 0 0 0
227 1 8.428253775704874 48.78066303955375 -1.3559938684532755 0 0 0
228 1 7.9916149076576914 50.54602545183777 0.45150663131534335 0 0 0
229 1 7.558899061308907 52.30614737385046 2.2590070511669316 0 0 0
230 1 7.131381217169761 54.06225616503611 4.066507572196342 0 0 0
231 1 6.7021571014322205 55.82145965398535 5.8740080902041205 0 0 0
232 1 11.037997412370174 45.67102360387948 -6.778496212744199 0 0 0
233 1 10.607845068046046 47.43808775611324 -4.970995756399707 0 0 0
234 1 10.175234794439717 49.20399528194985 -3.1634952375397134 0 0 0
235 1 9.74327975263833 50.96719945938026 -1.3559947943424917 0 0 0
236 1 9.313460567506155 52.72787178553734 0.45150565117444136 0 0 0
237 1 8.882687774631222 54.488202766790344 2.2590061711927047 0 0 0
238 1 8.447053345686243 56.250229446308616 4.066506709819342 0 0 0
239 1 8.008763231712749 58.01178057784943 5.874007215316823 0 0 0
240 1 12.35556617279498 47.862138127392505 -6.778497005309705 0 0 0
241 1 11.924963261659087 49.62698755681128 -4.970996576446104 0 0 0
242 1 11.494801332482538 51.390064482767166 -3.1634961813874565 0 0 0
243 1 11.064171870114947 53.15224093994171 -1.3559957143865797 0 0 0
244 1 10.631239715558763 54.91440310478611 0.45150483200074537 0 0 0
245 1 10.196342293157812 56.675817702099856 2.259005337683396 0 0 0
246 1 9.762584571927334 58.435015538754236 4.066505759669738 0 0 0
247 1 13.675299783159858 50.05147048832085 -6.778497870141704 0 0 0
248 1 13.24511724773754 51.81478914172602 -4.970997432482826 0 0 0
249 1 12.813731205392713 53.577627561137085 -3.1634969672997872 0 0 0
250 1 12.381062134418087 55.33974134512099 -1.3559963944783593 0 0 0
251 1 11.948256771266756 57.100423465529666 0.4515041107843361 0 0 0
252 1 11.516231491062044 58.85955669376201 2.2590044520626646 0 0 0
253 1 14.99523715360705 52.24090918796731 -6.778498669510476 0 0 0
254 1 14.563911509743647 54.003467796698025 -4.970998208290358 0 0 0
255 1 14.132168165985064 55.76512212343416 -3.163497676683822 0 0 0
256 1 13.7004512387456 57.525657809916474 -1.3559972189291047 0 0 0
257 1 13.268517846515365 59.285368055708 0.4515031948179347 0 0 0
258 1 16.31498423615639 54.430102586353506 -6.778499376437557 0 0 0
259 1 15.883786696025808 56.19132384194264 -4.970998906199283 0 0 0
260 1 15.45234586888786 57.951867706802055 -3.163498494507881 0 0 0
261 1 17.635679512600205 56.61861813987999 -6.778500149023118 0 0 0
262 1 17.20428955836222 58.378947707630566 -4.970999790450699 0 0 0
263 1 18.956664421725478 58.80685230987242 -6.778501096023622 0 0 0
264 2 -0.37329302084330607 22.582080232530323 -4.970985632433706 0 0 0
265 1 0.766448647283454 24.258884970318725 -6.778488921943689 0 0 0
266 1 0.7928617329334173 26.157074886247948 -4.9709884065820695 0 0 0
267 1 0.6199323154213516 28.202502843219342 -3.1634877909717147 0 0 0
268 1 0.2690325310826438 30.030730467396857 -1.3559893997846226 0 0 0
269 1 2.5567496785430137 26.63135270723229 -6.778490557532774 0 0 0
270 1 2.2581785682761364 28.4719377842655 -4.9709896489322 0 0 0
271 1 1.844758986643626 30.417243377850248 -3.1634897533946607 0 0 0
272 1 1.2962786229533947 32.18957661793555 -1.3559892870687897 0 0 0
273 1 0.9369160309809104 33.82443402867822 0.4515112195034017 0 0 0
274 1 0.6322230845698442 35.694931886958166 2.259012309587935 0 0 0
275 1 0.2677905633922677 37.49931537045898 4.066510840298949 0 0 0
276 1 3.9329525674203296 28.914662338129965 -6.778491132365165 0 0 0
277 1 3.521121411032567 30.74274501584693 -4.970990853238544 0 0 0
278 1 3.129752646102446 32.544721568990504 -3.163490618343316 0 0 0
279 1 2.719809112255618 34.29194380990665 -1.355990173184583 0 0 0
280 1 2.3202841369669756 36.05836364319199 0.45151042783738565 0 0 0
281 1 1.8603236731363353 37.925299058580684 2.2590103456296124 0 0 0
282 1 1.309749218951552 39.66250372585679 4.066510935371787 0 0 0
283 1 0.9579397973023731 41.29256061573381 5.8740115706719065 0 0 0
284 1 5.266732987830665 31.134467804537557 -6.778492334411392 0 0 0
285 1 4.873994078206877 32.92443199491726 -4.970991954541028 0 0 0
286 1 4.464907088194877 34.71303409568508 -3.1634915581305383 0 0 0
287 1 4.015869194415799 36.505673081595425 -1.3559910421138304 0 0 0
288 1 3.5688778225924693 38.29148236508397 0.45150922054825454 0 0 0
289 1 3.1615244951386643 40.05063863706689 2.2590095183845333 0 0 0
290 1 2.739587362600119 41.77742731597774 4.066510053868797 0 0 0
291 1 2.3356416580544135 43.53625333198013 5.874010687220493 0 0 0
292 1 6.610452898994808 33.33925508749811 -6.778493271917965 0 0 0
293 1 6.186666570550571 35.13083200184976 -4.970992861234512 0 0 0
294 1 5.752449063812207 36.916299014112845 -3.163492486491358 0 0 0
295 1 5.3302722484041425 38.6869616203169 -1.355992182101298 0 0 0
296 1 4.919197799545259 40.452895405425146 0.4515082088033208 0 0 0
297 1 4.494582692638559 42.217498978850976 2.259008588147911 0 0 0
298 1 4.037264291560035 43.99342935127529 4.0665092089572585 0 0 0
299 1 3.5879235873887723 45.76921585223412 5.8740096624402325 0 0 0
300 1 7.924064205308852 35.54837530409734 -6.778494251290049 0 0 0
301 1 7.50159818491305 37.32525228959259 -4.970993906324658 0 0 0
302 1 7.083280701149235 39.09748678913635 -3.1634935664217747 0 0 0
303 1 6.661462850264712 40.86989756463378 -1.355993128484387 0 0 0
304 1 6.225809104114404 42.64601927850317 0.4515073097392789 0 0 0
305 1 5.782367643544646 44.41501376034352 2.25900775868542 0 0 0
306 1 5.3547357905734145 46.17317484871638 4.066508285899598 0 0 0
307 1 4.939665767170979 47.93119763639205 5.874008858444219 0 0 0
308 1 9.250773596460036 37.74363919741824 -6.778495276302305 0 0 0
309 1 8.828360020509933 39.51659768358687 -4.970994947865488 0 0 0
310 1 8.400251790229078 41.29128096968804 -3.1634944627157804 0 0 0
311 1 7.967731812683198 43.06406051451801 -1.355993989325117 0 0 0
312 1 7.537968534129078 44.83030169787525 0.4515064168272617 0 0 0
313 1 7.112796758555902 46.591324425089304 2.2590069519707923 0 0 0
314 1 6.685547034352268 48.354547097476434 4.066507517135277 0 0 0
315 1 6.246154179981687 50.12360055513468 5.874008050133089 0 0 0
316 1 10.572744568120257 39.94095445001559 -6.778496242744383 0 0 0
317 1 10.144251973178939 41.712548386172266 -4.970995772925105 0 0 0
318 1 9.71621125874185 43.482112892023245 -3.1634953062837843 0 0 0
319 1 9.289723761017584 45.24872986741433 -1.3559948682814407 0 0 0
320 1 8.8616976699588 47.0142140364029 0.45150560784725485 0 0 0
321 1 8.428253774348846 48.78066303814358 2.259006131660413 0 0 0
322 1 7.991614908573382 50.546025451447015 4.066506632099223 0 0 0
323 1 7.558899061486272 52.30614737362293 5.874007050940707 0 0 0
324 1 11.892559240914835 42.136301918679855 -6.778497036311121 0 0 0
325 1 11.465502770037418 43.90383179659434 -4.970996665267716 0 0 0
326 1 11.037997412334676 45.671023604423816 -3.1634962130952826 0 0 0
327 1 10.6078450681496 47.43808775646769 -1.3559957568428094 0 0 0
328 1 10.175234793969693 49.20399528183071 0.4515047630837089 0 0 0
329 1 9.74327975142073 50.96719945818355 2.259005204650149 0 0 0
330 1 9.31346056709529 52.727871785779534 4.066505650182928 0 0 0
331 1 8.88268777531529 54.48820276747954 5.8740061714112235 0 0 0
332 1 13.214727181288254 44.32945407219051 -6.778497895011225 0 0 0
333 1 12.785780321330975 46.095898131773204 -4.970997491437682 0 0 0
334 1 12.355566172586578 47.862138127583556 -3.1634970056650165 0 0 0
335 1 11.924963262555309 49.62698755715041 -1.3559965757456205 0 0 0
336 1 11.494801332815982 51.390064482499916 0.45150381822855545 0 0 0
337 1 11.064171870851368 53.15224093906905 2.259004285421226 0 0 0
338 1 10.631239715219081 54.91440310494058 4.066504831856224 0 0 0
339 1 10.19634229243239 56.67581770259073 5.874005338202266 0 0 0
340 1 14.534987939918068 46.52274490565261 -6.778498792828482 0 0 0
341 1 14.105115614290185 48.28743697598912 -4.970998326889617 0 0 0
342 1 13.675299782908226 50.0514704879653 -3.1634978703183236 0 0 0
343 1 13.245117248145931 51.81478914256726 -1.3559974326028097 0 0 0
344 1 12.813731205392244 53.57762756105921 0.45150303271819237 0 0 0
345 1 12.381062134968218 55.339741345906425 2.2590036055701654 0 0 0
346 1 11.948256770928822 57.10042346570376 4.066504111774214 0 0 0
347 1 11.51623149075138 58.85955669385387 5.874004451969892 0 0 0
348 1 15.855809417538055 48.714706375304964 -6.778499602364793 0 0 0
349 1 15.425788387774134 50.47788652498267 -4.970999098219646 0 0 0
350 1 14.99523715389084 52.240909187628866 -3.1634986702070056 0 0 0
351 1 14.563911510203368 54.00346779600229 -1.355998207971213 0 0 0
352 1 14.132168166039008 55.76512212355339 0.4515023220312156 0 0 0
353 1 13.700451239117271 57.52565780947774 2.259002781382452 0 0 0
354 1 13.268517846498767 59.28536805600964 4.066503195015662 0 0 0
355 1 17.176810399332368 50.906071012710676 -6.778500298271528 0 0 0
356 1 16.746029526205135 52.66824781048839 -4.970999885368062 0 0 0
357 1 16.31498423564969 54.430102585964185 -3.163499376841889 0 0 0
358 1 15.883786696151162 56.19132384060142 -1.3559989063131996 0 0 0
359 1 15.452345868340615 57.951867706484016 0.4515015046294669 0 0 0
360 1 18.497727574956713 53.09688069071378 -6.778501083729837 0 0 0
361 1 18.066759206266454 54.857892189065005 -4.971000578120168 0 0 0
362 1 17.63567951232153 56.61861813922945 -3.163500148931595 0 0 0
363 1 17.20428955932468 58.37894770634875 -1.355999790470502 0 0 0
364 1 19.819150818489675 55.28694902924439 -6.778501788691111 0 0 0
365 1 19.387993472781844 57.04701358768349 -4.971001462338435 0 0 0
366 1 18.956664421553285 58.806852308907104 -3.1635010973003905 0 0 0
367 1 21.140901324007743 57.47647096516179 -6.778502659203598 0 0 0
368 1 20.709619515635154 59.23564016986354 -4.971002334134352 0 0 0
369 2 0.8267183278762644 20.466928880831226 -4.97098910493385 0 0 0
370 2 0.8456846890715468 18.637004408060015 -3.163489306574407 0 0 0
371 2 -0.3732933514818626 22.582080440294355 -1.3559856435190683 0 0 0
372 1 2.3396328813243485 20.949052046662494 -6.778490872757125 0 0 0
373 1 1.9546415560204053 22.743174087076078 -4.970991828338835 0 0 0
374 1 0.7664486489467208 24.258884970525422 -3.1634889295047306 0 0 0
375 1 0.7928617598002035 26.157074888930417 -1.3559884064918035 0 0 0
376 1 0.6199323399585381 28.2025028573267 0.4515121884109511 0 0 0
377 1 0.26903235415754523 30.030730402768164 2.2590106013345075 0 0 0
378 1 3.543128094484416 23.218929224169905 -6.778492441169659 0 0 0
379 1 2.994007366570699 24.950447392977317 -4.9709917811056 0 0 0
380 1 2.5567496853123686 26.631352696836835 -3.1634905569465084 0 0 0
381 1 2.2581785662206784 28.47193779158072 -1.3559896310590764 0 0 0
382 1 1.8447590020858655 30.417243376670406 0.4515102081922632 0 0 0
383 1 1.2962786371253827 32.18957669491939 2.259010699895219 0 0 0
384 1 0.9369159988814744 33.82443407572321 4.066511192630272 0 0 0
385 1 0.6322230794890942 35.6949318868535 5.8740122238331365 0 0 0
386 1 4.802858726248715 25.40047522086501 -6.77849298097077 0 0 0
387 1 4.366861343566427 27.13145827319382 -4.970992241504556 0 0 0
388 1 3.9329525750889474 28.91466234405717 -3.1634911394649303 0 0 0
389 1 3.5211213873263603 30.74274501069852 -1.3559908571795818 0 0 0
390 1 3.129752634320397 32.544721572768104 0.45150938695920656 0 0 0
391 1 2.7198091025645397 34.29194379946244 2.2590098278610773 0 0 0
392 1 2.32028412722336 36.058363624207736 4.066510427501083 0 0 0
393 1 1.8603236732332817 37.92529906062553 5.874010403090495 0 0 0
394 1 6.124136619934077 27.597791730076132 -6.778493586192593 0 0 0
395 1 5.6806458085067675 29.359618599563824 -4.970992849627999 0 0 0
396 1 5.2667329853719735 31.134467804570583 -3.163492338302401 0 0 0
397 1 4.873994079928181 32.92443199562876 -1.3559919548059676 0 0 0
398 1 4.464907089569749 34.71303409728791 0.4515084402226765 0 0 0
399 1 4.015869195299885 36.505673084297136 2.259008955707624 0 0 0
400 1 3.568877835466907 38.29148237110102 4.0665092219393975 0 0 0
401 1 3.1615244976507313 40.05063863485869 5.874009514264812 0 0 0
402 1 7.4460894311206545 29.799509831561785 -6.778494355098728 0 0 0
403 1 7.024517699810232 31.56170213785655 -4.970993849664818 0 0 0
404 1 6.610452899389983 33.33925508844147 -3.1634932711569053 0 0 0
405 1 6.186666568509494 35.13083200125589 -1.3559928600418407 0 0 0
406 1 5.7524490639146535 36.91629901417863 0.4515075143428744 0 0 0
407 1 5.330272247177632 38.68696161986538 2.2590078201806234 0 0 0
408 1 4.9191977978815515 40.45289540285011 4.066508209570354 0 0 0
409 1 4.494582692876094 42.2174989772624 5.874008589608077 0 0 0
410 1 8.779332141126531 32.000090637820925 -6.7784952697990715 0 0 0
411 1 8.351190567291269 33.77056055718264 -4.970994685556917 0 0 0
412 1 7.924064205451913 35.54837530409866 -3.163494250758792 0 0 0
413 1 7.501598184301443 37.32525229038672 -1.3559939061690682 0 0 0
414 1 7.0832807022274125 39.097486789894354 0.45150643489980535 0 0 0
415 1 6.6614628490318495 40.869897564606724 2.259006871312897 0 0 0
416 1 6.225809105033875 42.64601927855832 4.066507311192909 0 0 0
417 1 5.782367640772648 44.415013760141214 5.874007758922249 0 0 0
418 1 10.100590837073113 34.204778492385536 -6.7784960806121894 0 0 0
419 1 9.673215335639881 35.97288618153561 -4.970995684479513 0 0 0
420 1 9.250773596363103 37.743639197374954 -3.1634952756412202 0 0 0
421 1 8.828360020275696 39.51659768329235 -1.3559949479320523 0 0 0
422 1 8.400251789259272 41.29128096995459 0.45150553659903286 0 0 0
423 1 7.967731813742475 43.06406051339348 2.259006011040075 0 0 0
424 1 7.537968533202047 44.83030169738664 4.066506417273335 0 0 0
425 1 7.112796759464729 46.59132442584865 5.874006952129724 0 0 0
426 1 11.426006218444343 36.40363180202527 -6.778497109877117 0 0 0
427 1 10.999620667565509 38.17050299837293 -4.970996675098097 0 0 0
428 1 10.572744568406378 39.94095445086253 -3.1634962417673234 0 0 0
429 1 10.144251973275715 41.71254838619583 -1.3559957725825476 0 0 0
430 1 9.716211258477173 43.482112891687116 0.4515046934290313 0 0 0
431 1 9.289723761469588 45.24872986702861 2.2590051317972795 0 0 0
432 1 8.861697669409494 47.01421403607491 4.066505607742154 0 0 0
433 1 8.428253775702586 48.780663039536556 5.87400613156732 0 0 0
434 1 12.749756019077651 38.60206043662411 -6.778497970451013 0 0 0
435 1 12.320671809242441 40.36859066330154 -4.970997495760853 0 0 0
436 1 11.892559240963962 42.13630191836079 -3.1634970362028416 0 0 0
437 1 11.465502770248122 43.90383179649138 -1.3559966650755888 0 0 0
438 1 11.037997412354017 45.671023603873344 0.45150378723491263 0 0 0
439 1 10.607845068041513 47.43808775610031 2.2590042436146325 0 0 0
440 1 10.175234794438495 49.203995281952025 4.066504762460966 0 0 0