LAMMPS data file via write_data, version 29 Aug 2024, timestep = 608, units = metal

29248 atoms
2 atom types

-100.1 100.1 xlo xhi
-59.6201706 59.6201706 ylo yhi
-7.23 7.23 zlo zhi
0 0 0 xy xz yz

Masses

1 63.55
2 63.55

Atoms # atomic

1 1 0.6644212707887505 58.108125637715396 -6.775259448413908 0 0 0
2 1 0.2897216328194503 52.4500491969041 -6.775259402726409 0 0 0
3 1 1.355225125675858 54.609015312523276 -6.7752595168627385 0 0 0
4 1 1.0007365731923699 56.231687670926014 -4.967759514475568 0 0 0
5 1 0.6644211938936451 58.10812561645999 -3.160259413412746 0 0 0
6 1 2.7748095748471684 56.74330985491361 -6.7752596709424076 0 0 0
7 1 2.360215674855141 58.49424540204273 -4.967759598553837 0 0 0
8 1 4.068619356934192 58.967393215431436 -6.77525979096404 0 0 0
9 1 1.0007365956223424 48.77916638181639 -6.775259514599976 0 0 0
10 1 0.6644212136341991 50.65560432872115 -4.967759408269821 0 0 0
11 1 0.28972166104780683 52.45004917654311 -3.1602594043976073 0 0 0
12 1 2.3602156969003687 51.04172409964725 -6.775259594792918 0 0 0
13 1 1.8936061442690857 52.89124261083277 -4.967759516610997 0 0 0
14 1 1.3552251301016582 54.609015296544804 -3.1602595230118475 0 0 0
15 1 1.0007365153356318 56.231687728736695 -1.3527595099595942 0 0 0
16 1 0.6644212013526953 58.108125613649825 0.45474051698631357 0 0 0
17 1 3.6170021417423186 53.27853024983397 -6.77525973622504 0 0 0
18 1 3.208367075474399 55.02277970290694 -4.967759715832728 0 0 0
19 1 2.7748095952731404 56.74330984336924 -3.16025967294067 0 0 0
20 1 2.3602156716671914 58.49424540088524 -1.3527595814469515 0 0 0
21 1 4.96717518424029 55.450724794351736 -6.775260018052057 0 0 0
22 1 4.532637548243002 57.20330890282627 -4.967759893953697 0 0 0
23 1 4.068619359616591 58.96739321556068 -3.160259793434435 0 0 0
24 1 6.270616032009414 57.65114383782082 -6.77526021239784 0 0 0
25 1 5.821171324371107 59.406273652344076 -4.96776015528804 0 0 0
26 1 0.6644213084802431 43.20308307385596 -6.775259449739066 0 0 0
27 1 0.28972172273778085 44.99752793821198 -4.967759405952943 0 0 0
28 1 1.8936061216525815 45.438721295515414 -6.77525954113968 0 0 0
29 1 1.3552251318161268 47.156494009906176 -4.967759517532165 0 0 0
30 1 1.0007365628107152 48.77916640957766 -3.1602595150084443 0 0 0
31 1 0.6644211921655483 50.65560432498888 -1.352759439031235 0 0 0
32 1 0.2897216362835735 52.45004915073202 0.45474060415007767 0 0 0
33 1 3.208367089231686 47.57025842649565 -6.775259717613222 0 0 0
34 1 2.7748096013606727 49.29078856165348 -4.967759670856804 0 0 0
35 1 2.3602156829905 51.04172411225982 -3.1602595932979622 0 0 0
36 1 1.8936061464124236 52.89124261033333 -1.352759540272722 0 0 0
37 1 1.355225131962115 54.60901531705992 0.45474049244103465 0 0 0
38 1 1.0007365560637425 56.23168768888733 2.262240475734049 0 0 0
39 1 0.664421274964738 58.108125636686076 4.069740526642412 0 0 0
40 1 4.532637554563976 49.75078761600306 -6.77525989387891 0 0 0
41 1 4.0686193667742 51.51487192407422 -4.9677597928550545 0 0 0
42 1 3.617002133953676 53.27853024643792 -3.160259733938453 0 0 0
43 1 3.208367089768032 55.022779698564854 -1.3527597195959467 0 0 0
44 1 2.774809589395204 56.74330984263067 0.45474032954494076 0 0 0
45 1 2.3602156736699698 58.49424539464409 2.262240440085296 0 0 0
46 1 5.821171335987984 51.953752354764895 -6.775260153839843 0 0 0
47 1 5.388983823167962 53.70058854872959 -4.967760063198041 0 0 0
48 1 4.967175177491811 55.45072480077297 -3.1602600162995036 0 0 0
49 1 4.532637545312639 57.20330890268347 -1.3527598978071824 0 0 0
50 1 4.068619359006007 58.9673932166944 0.4547402007596079 0 0 0
51 1 7.150395146746732 54.13718202603345 -6.775260475397275 0 0 0
52 1 6.7158617835420955 55.89085521406664 -4.967760361250578 0 0 0
53 1 6.270616031237125 57.65114383626619 -3.1602602123729846 0 0 0
54 1 5.82117132392942 59.406273653081364 -1.3527601545123462 0 0 0
55 1 8.462892892711295 56.33289459525013 -6.775260754423757 0 0 0
56 1 8.02045317506898 58.088476875741996 -4.967760637143805 0 0 0
57 1 9.776097965130504 58.52475138064816 -6.775260940038758 0 0 0
58 1 0.2897216829385769 37.54500659413596 -6.775259401499098 0 0 0
59 1 1.3552251415954402 39.70397274585624 -6.775259520952888 0 0 0
60 1 1.0007366464298997 41.326645032161046 -4.967759517344762 0 0 0
61 1 0.6644212348928704 43.20308305106331 -3.1602593766763136 0 0 0
62 1 0.28972179024206923 44.997527901348796 -1.3527594039697584 0 0 0
63 1 2.77480957731548 41.838267254403085 -6.775259669518594 0 0 0
64 1 2.360215686150326 43.58920282036434 -4.967759602970033 0 0 0
65 1 1.8936061293104416 45.43872130720077 -3.1602595174656267 0 0 0
66 1 1.3552251324119169 47.15649400510379 -1.3527595134279622 0 0 0
67 1 1.0007365566938091 48.77916642149798 0.45474049209057005 0 0 0
68 1 0.6644212301292498 50.655604334243 2.262240461304547 0 0 0
69 1 0.28972165063181876 52.45004923027977 4.069740605488187 0 0 0
70 1 4.068619377839454 44.06235062983591 -6.77525978986434 0 0 0
71 1 3.6170021577787708 45.82600895094003 -4.967759734142074 0 0 0
72 1 3.2083670925944006 47.5702584252632 -3.1602597167608164 0 0 0
73 1 2.7748096068889936 49.29078855230315 -1.3527596700180518 0 0 0
74 1 2.3602156752242536 51.0417241055471 0.45474043452027113 0 0 0
75 1 1.8936061448404615 52.89124261131149 2.262240473149717 0 0 0
76 1 1.3552251222787959 54.609015276599955 4.069740493791103 0 0 0
77 1 1.0007365894655322 56.23168766141199 5.877240494694994 0 0 0
78 1 5.388983826921759 46.24806724738681 -6.775260061812385 0 0 0
79 1 4.967175190243935 47.998203505825835 -4.967760015492967 0 0 0
80 1 4.5326375590197046 49.750787611818886 -3.160259895262625 0 0 0
81 1 4.068619371775625 51.51487192696313 -1.3527597963605253 0 0 0
82 1 3.617002140467733 53.278530251077264 0.4547402697822978 0 0 0
83 1 3.2083670838804323 55.022779695278565 2.2622402735842675 0 0 0
84 1 2.7748095801793227 56.74330986700931 4.069740330280779 0 0 0
85 1 2.3602156674655532 58.4942453899508 5.87724041767438 0 0 0
86 1 6.715861791886411 48.43833391233981 -6.775260360798266 0 0 0
87 1 6.270616039227278 50.19862254208336 -4.967760209259674 0 0 0
88 1 5.821171335649339 51.953752354118755 -3.160260153723317 0 0 0
89 1 5.388983820737323 53.70058854742765 -1.3527600606203352 0 0 0
90 1 4.967175177422504 55.45072479637118 0.45473998420905287 0 0 0
91 1 4.532637547717627 57.2033089037568 2.2622401043047122 0 0 0
92 1 4.068619355112517 58.96739321225838 4.069740202231198 0 0 0
93 1 8.020453182955578 50.635955573645965 -6.775260636514723 0 0 0
94 1 7.582969040020743 52.38769092706159 -4.967760548067644 0 0 0
95 1 7.150395149218085 54.13718202459486 -3.1602604753638563 0 0 0
96 1 6.715861785153621 55.890855214331275 -1.3527603616673771 0 0 0
97 1 6.270616032087446 57.65114383818757 0.45473978873212584 0 0 0
98 1 5.8211713254719655 59.40627365012815 2.2622398445176795 0 0 0
99 1 9.340232750408276 52.824313854893 -6.775260868986998 0 0 0
100 1 8.903671080766557 54.5773586189546 -4.96776077711921 0 0 0
101 1 8.46289289248476 56.33289459548505 -3.1602607541732386 0 0 0
102 1 8.020453175478153 58.0884768752851 -1.3527606362903095 0 0 0
103 1 10.65480430318786 55.017275057460004 -6.775261020483901 0 0 0
104 1 10.214580785578903 56.77166694161374 -4.9677610286306875 0 0 0
105 1 9.776097965463677 58.52475138077664 -3.160260940428096 0 0 0
106 1 11.96870105917013 57.20936861315146 -6.775261250147222 0 0 0
107 1 11.53123454297888 58.96227273745202 -4.967761150425718 0 0 0
108 1 13.284944181566019 59.40069365612816 -6.775261446793568 0 0 0
109 1 1.0007365638637111 33.87412379496035 -6.775259520207247 0 0 0
110 1 0.664421244902158 35.75056172747677 -4.967759441374684 0 0 0
111 1 0.2897216598510113 37.54500658214847 -3.1602594053233743 0 0 0
112 1 2.3602156991150736 36.13668149580463 -6.775259578984179 0 0 0
113 1 1.8936061527026737 37.98620000004704 -4.96775952989588 0 0 0
114 1 1.3552251435508538 39.7039727346636 -3.160259524486722 0 0 0
115 1 1.0007365665816934 41.32664511405891 -1.352759519694823 0 0 0
116 1 0.6644212408438079 43.203083054969476 0.45474053095919037 0 0 0
117 1 0.28972171639399846 44.99752789830497 2.262240606409567 0 0 0
118 1 3.6170021475702185 38.37348763322627 -6.775259737368683 0 0 0
119 1 3.208367063944337 40.117737120262255 -4.967759717485742 0 0 0
120 1 2.7748095963014805 41.8382672435795 -3.1602596752515955 0 0 0
121 1 2.360215655745634 43.589202831653175 -1.352759588226855 0 0 0
122 1 1.893606130663315 45.43872130298151 0.45474045310413874 0 0 0
123 1 1.3552251376571576 47.156494034167245 2.262240497070921 0 0 0
124 1 1.000736627133577 48.77916634618503 4.069740486099188 0 0 0
125 1 0.6644212568964178 50.65560433919696 5.877240566110831 0 0 0
126 1 4.967175200393072 40.54568219774223 -6.775260017414752 0 0 0
127 1 4.532637566761636 42.298266306754606 -4.967759895297323 0 0 0
128 1 4.06861938001974 44.062350630829776 -3.160259795024983 0 0 0
129 1 3.61700215311933 45.82600895026254 -1.3527597323849156 0 0 0
130 1 3.208367094156287 47.570258424972074 0.45474027871673783 0 0 0
131 1 2.7748095944554905 49.29078855948617 2.26224033181142 0 0 0
132 1 2.3602157018051457 51.04172410407059 4.069740431878556 0 0 0
133 1 1.8936061441054477 52.89124260954991 5.877240459757895 0 0 0
134 1 6.270616035594685 42.746101231115595 -6.775260212217641 0 0 0
135 1 5.821171331821745 44.50123105095209 -4.9677601546635595 0 0 0
136 1 5.388983827804466 46.24806724562341 -3.1602600614404697 0 0 0
137 1 4.9671751891179525 47.998203508150176 -1.3527600157356345 0 0 0
138 1 4.532637559094141 49.750787611379955 0.4547401038122528 0 0 0
139 1 4.06861936686002 51.51487192535142 2.2622402049931303 0 0 0
140 1 3.61700213364297 53.2785302492864 4.069740267741181 0 0 0
141 1 3.2083670762425953 55.02277969697095 5.8772402821598675 0 0 0
142 1 7.582969045367847 44.93516961760917 -6.775260547586252 0 0 0
143 1 7.150395153924251 46.68466071939664 -4.967760474514253 0 0 0
144 1 6.715861790062846 48.43833391386415 -3.1602603611490925 0 0 0
145 1 6.27061603823681 50.19862254238699 -1.3527602099211615 0 0 0
146 1 5.8211713344122415 51.953752355158365 0.4547398441545691 0 0 0
147 1 5.388983819261895 53.70058855099061 2.262239936521577 0 0 0
148 1 4.967175184203924 55.45072479571052 4.069739983692094 0 0 0
149 1 4.532637549060453 57.203308904822784 5.8772401021354845 0 0 0
150 1 8.903671084255166 47.1248373079954 -6.7752607755827166 0 0 0
151 1 8.46289289882354 48.88037328754755 -4.9677607541863065 0 0 0
152 1 8.020453183263527 50.63595557255746 -3.1602606362553853 0 0 0
153 1 7.582969040184196 52.3876909276752 -1.3527605480993423 0 0 0
154 1 7.150395148217285 54.13718202511003 0.4547395234600101 0 0 0
155 1 6.7158617831846215 55.89085521361154 2.2622396396129445 0 0 0
156 1 6.27061603123893 57.65114383700898 4.06973978800332 0 0 0
157 1 5.821171325591621 59.40627365183959 5.877239846175159 0 0 0
158 1 10.2145807904447 49.31914562751606 -6.77526102725469 0 0 0
159 1 9.776097970324386 51.072230070123005 -4.967760938934374 0 0 0
160 1 9.34023274986356 52.82431385578733 -3.160260868588628 0 0 0
161 1 8.90367108032558 54.5773586193478 -1.3527607775816723 0 0 0
162 1 8.462892892271029 56.33289459538522 0.45473924457962406 0 0 0
163 1 8.020453174012417 58.08847687664717 2.262239362985448 0 0 0
164 1 11.53123454827336 51.509751422873414 -6.775261149268229 0 0 0
165 1 11.093849749627523 53.26299910181992 -4.967761136316641 0 0 0
166 1 10.65480430333362 55.017275057284614 -3.160261020303417 0 0 0
167 1 10.214580785222438 56.77166694180669 -1.3527610281772995 0 0 0
168 1 9.776097965035461 58.52475138054097 0.4547390597132414 0 0 0
169 1 12.846432478096219 53.70194867046525 -6.775261378334745 0 0 0
170 1 12.407324455515365 55.45590596035927 -4.967761321623693 0 0 0
171 1 11.968701059530531 57.209368613344914 -3.1602612505445955 0 0 0
172 1 11.53123454227169 58.96227273760214 -1.3527611502533696 0 0 0
173 1 14.160906625787987 55.894035716737925 -6.77526164369876 0 0 0
174 1 13.722853377755001 57.647336446385175 -4.967761515576451 0 0 0
175 1 13.284944181969706 59.40069365596087 -3.1602614464046295 0 0 0
176 1 15.476469931326477 58.085669734460076 -6.775261808671214 0 0 0
177 1 0.6644212631633621 28.298040417850395 -6.775259488259796 0 0 0
178 1 0.28972173584276106 30.092485294055642 -4.967759401249656 0 0 0
179 1 1.8936061429173634 30.53367867309091 -6.775259530529408 0 0 0
180 1 1.355225128440452 32.25145135808915 -4.967759514947688 0 0 0
181 1 1.0007365605279546 33.8741237973584 -3.160259512287342 0 0 0
182 1 0.6644211902990378 35.75056171002952 -1.352759424269056 0 0 0
183 1 0.2897216766761943 37.545006568300686 0.45474059640900677 0 0 0
184 1 3.2083671037682535 32.66521578353373 -6.775259723618535 0 0 0
185 1 2.774809607315788 34.38574595107688 -4.967759670117758 0 0 0
186 1 2.3602157025814563 36.13668149715627 -3.1602595983601387 0 0 0
187 1 1.8936061593310711 37.98620000568557 -1.3527595288901868 0 0 0
188 1 1.3552251451703938 39.703972732865644 0.4547404958588763 0 0 0
189 1 1.0007366279326675 41.326645055135195 2.2622404853445106 0 0 0
190 1 0.6644213141454571 43.20308307830896 4.069740495401404 0 0 0
191 1 0.289721799303976 44.99752795887306 5.87724060290515 0 0 0
192 1 4.532637555847387 34.845744987084366 -6.775259897430469 0 0 0
193 1 4.068619364446647 36.6098293067458 -4.967759793967467 0 0 0
194 1 3.617002145782749 38.37348763337233 -3.160259735157457 0 0 0
195 1 3.2083670833756486 40.11773711124473 -1.352759721222972 0 0 0
196 1 2.7748095955021626 41.83826724270039 0.4547403337773744 0 0 0
197 1 2.3602156599951485 43.58920282033426 2.262240437773767 0 0 0
198 1 1.893606123076907 45.43872129494124 4.06974048134112 0 0 0
199 1 1.3552251241675748 47.156493998925306 5.877240483635336 0 0 0
200 1 5.821171345774758 37.048709736976086 -6.775260155064952 0 0 0
201 1 5.388983838007547 38.795545931934875 -4.967760063866046 0 0 0
202 1 4.967175193119644 40.54568220136118 -3.160260015305161 0 0 0
203 1 4.532637571338483 42.29826630092804 -1.3527598969563892 0 0 0
204 1 4.068619384934081 44.06235063348205 0.45474020250028246 0 0 0
205 1 3.6170021602110154 45.82600895280424 2.262240267776732 0 0 0
206 1 3.208367080214302 47.570258430775986 4.069740278414872 0 0 0
207 1 2.7748095912029243 49.29078857153424 5.877240328863145 0 0 0
208 1 7.150395149305666 39.23213940532056 -6.775260475629801 0 0 0
209 1 6.715861786116676 40.985812603215884 -4.967760362051953 0 0 0
210 1 6.270616034784524 42.74610123079025 -3.160260210995908 0 0 0
211 1 5.821171331956464 44.50123105235189 -1.3527601537409368 0 0 0
212 1 5.388983827264099 46.248067244346494 0.4547399392194462 0 0 0
213 1 4.9671751910851185 47.99820350493757 2.262239983980565 0 0 0
214 1 4.532637556129416 49.75078761648491 4.069740104185222 0 0 0
215 1 4.068619361204085 51.51487192191809 5.877240205800973 0 0 0
216 1 8.462892905138162 41.427851976376736 -6.775260754055481 0 0 0
217 1 8.020453187915592 43.18343426306651 -4.967760636804059 0 0 0
218 1 7.582969044863347 44.93516961878685 -3.1602605480614785 0 0 0
219 1 7.150395154443757 46.68466071813324 -1.3527604745038335 0 0 0
220 1 6.715861790922773 48.43833391383013 0.4547396400098111 0 0 0
221 1 6.270616039108788 50.19862254255664 2.2622397909395207 0 0 0
222 1 5.821171337735507 51.95375235181891 4.069739844475072 0 0 0
223 1 5.3889838198877555 53.70058855212681 5.877239940220626 0 0 0
224 1 9.77609797315715 43.61970875698565 -6.775260938827086 0 0 0
225 1 9.340232753861159 45.37179254003984 -4.967760868144948 0 0 0
226 1 8.903671084552869 47.12483730716763 -3.160260775921556 0 0 0
227 1 8.462892899032454 48.880373287895075 -1.3527607539678452 0 0 0
228 1 8.020453183526271 50.63595557283444 0.45473936419410343 0 0 0
229 1 7.582969040910982 52.38769092601097 2.2622394523989646 0 0 0
230 1 7.150395148165188 54.137182026723984 4.069739524235707 0 0 0
231 1 6.715861782448229 55.89085521310158 5.877239638595475 0 0 0
232 1 11.093849755883753 45.810477785742044 -6.7752611353035705 0 0 0
233 1 10.654804309345067 47.564753742024685 -4.9677610195739605 0 0 0
234 1 10.214580790879538 49.319145627670956 -3.1602610272042355 0 0 0
235 1 9.776097970324031 51.072230069433935 -1.3527609392015418 0 0 0
236 1 9.340232750109394 52.82431385526795 0.4547391312728225 0 0 0
237 1 8.903671080692959 54.57735861913883 2.2622392230684008 0 0 0
238 1 8.462892892697056 56.33289459453905 4.0697392451739365 0 0 0
239 1 8.020453174800593 58.088476876979776 5.877239363154227 0 0 0
240 1 12.407324463304207 48.00338464225273 -6.775261320529886 0 0 0
241 1 11.96870106527301 49.75684729666079 -4.967761250084034 0 0 0
242 1 11.531234548953009 51.50975142265889 -3.160261149548216 0 0 0
243 1 11.093849749807333 53.262999101837174 -1.3527611361959093 0 0 0
244 1 10.654804303416569 55.01727505722962 0.45473897980706 0 0 0
245 1 10.214580785959583 56.771666941202305 2.262238971441778 0 0 0
246 1 9.776097964740046 58.52475138150093 4.069739059464048 0 0 0
247 1 13.72285338062342 50.19481512988872 -6.7752615146875454 0 0 0
248 1 13.284944184319329 51.94817233720496 -4.9677614472440474 0 0 0
249 1 12.846432478202132 53.70194867054854 -3.1602613782071125 0 0 0
250 1 12.407324455807554 55.455905960104126 -1.3527613217196206 0 0 0
251 1 11.968701059253306 57.20936861328911 0.4547387499491796 0 0 0
252 1 11.531234543257469 58.96227273750612 2.2622388494653154 0 0 0
253 1 15.038101259380326 52.386757661389076 -6.775261729006281 0 0 0
254 1 14.599444477933616 54.14047606608022 -4.967761702604644 0 0 0
255 1 14.160906626026147 55.89403571677085 -3.1602616438608595 0 0 0
256 1 13.722853377885443 57.64733644633694 -1.3527615158344672 0 0 0
257 1 13.284944181643638 59.400693656171704 0.45473855331335583 0 0 0
258 1 16.352894763972216 54.57876742565983 -6.7752620026548405 0 0 0
259 1 15.914628731668842 56.33222096030752 -4.967761923938201 0 0 0
260 1 15.476469930807909 58.08566973476501 -3.160261808459125 0 0 0
261 1 17.668167625360212 56.770549299368575 -6.775262130817329 0 0 0
262 1 17.22982561903946 58.5241062302056 -4.967762084392352 0 0 0
263 1 18.98318950050991 58.962501729741824 -6.7752622585385 0 0 0
264 1 0.2897217682268973 22.63996399647504 -6.7752594018895165 0 0 0
265 1 1.3552251331538372 24.79893007077863 -6.775259514978606 0 0 0
266 1 1.0007366369333965 26.42160240646985 -4.967759512495147 0 0 0
267 1 0.6644212411410422 28.298040413250327 -3.1602594193425166 0 0 0
268 1 0.2897217086821513 30.092485250452576 -1.3527594047043832 0 0 0
269 1 2.7748096005990277 26.933224607661877 -6.775259673731811 0 0 0
270 1 2.360215697996651 28.684160182098445 -4.967759586748373 0 0 0
271 1 1.893606143879893 30.53367867549823 -3.1602595363276365 0 0 0
272 1 1.3552251358149334 32.25145137708126 -1.3527595224704145 0 0 0
273 1 1.0007365095308245 33.87412384395852 0.4547404834318304 0 0 0
274 1 0.6644211634147297 35.75056169863684 2.2622405436549036 0 0 0
275 1 0.2897216363715813 37.54500656582294 4.069740600540064 0 0 0
276 1 4.0686193859311715 29.15730798680992 -6.775259795001351 0 0 0
277 1 3.617002161795199 30.9209663166475 -4.967759734450432 0 0 0
278 1 3.2083671030004126 32.66521578576762 -3.160259717954423 0 0 0
279 1 2.7748096170729895 34.3857459380126 -1.3527596724035136 0 0 0
280 1 2.3602157061439755 36.13668150143341 0.45474041089842265 0 0 0
281 1 1.893606166662181 37.986200016231926 2.262240457898771 0 0 0
282 1 1.35522514635079 39.70397275260992 4.069740493255063 0 0 0
283 1 1.0007366682748824 41.32664501663836 5.877240489677656 0 0 0
284 1 5.3889838308019335 31.343024612605213 -6.775260062248253 0 0 0
285 1 4.967175192240532 33.09316087244812 -4.9677600167682625 0 0 0
286 1 4.532637556027112 34.84574498650071 -3.1602598974535367 0 0 0
287 1 4.068619366554486 36.609829308079235 -1.3527597917794838 0 0 0
288 1 3.6170021427528383 38.373487630984165 0.4547402672292821 0 0 0
289 1 3.2083670651708758 40.11773711386166 2.262240275411119 0 0 0
290 1 2.7748095777723734 41.83826725304723 4.069740327944917 0 0 0
291 1 2.3602156589185768 43.589202825873095 5.877240422824048 0 0 0
292 1 6.715861803512894 33.53329128244949 -6.775260360726444 0 0 0
293 1 6.270616050016571 35.2935799160201 -4.967760210920954 0 0 0
294 1 5.82117134485776 37.048709737287645 -3.1602601554960423 0 0 0
295 1 5.388983836099953 38.7955459326682 -1.3527600632407857 0 0 0
296 1 4.967175194236333 40.54568220228972 0.4547399826752865 0 0 0
297 1 4.5326375733534405 42.29826630315454 2.2622401022510905 0 0 0
298 1 4.068619381276633 44.06235063139736 4.069740203034822 0 0 0
299 1 3.6170021575832436 45.82600895379601 5.8772402672138595 0 0 0
300 1 8.020453191048688 35.73091294326567 -6.775260636706792 0 0 0
301 1 7.582969043631593 37.482648303401696 -4.967760547982448 0 0 0
302 1 7.150395150929569 39.23213940428837 -3.160260475547057 0 0 0
303 1 6.715861785320655 40.98581260415066 -1.352760361704121 0 0 0
304 1 6.270616033900126 42.74610123084249 0.4547397891679133 0 0 0
305 1 5.821171331076442 44.50123105109393 2.262239844728792 0 0 0
306 1 5.3889838273591835 46.24806724592022 4.0697399389261575 0 0 0
307 1 4.967175195237644 47.99820350226438 5.877239984809673 0 0 0
308 1 9.340232764079232 37.9192712271066 -6.775260868580223 0 0 0
309 1 8.903671092550354 39.67231599696321 -4.967760776395205 0 0 0
310 1 8.462892904577402 41.42785197691858 -3.160260754317069 0 0 0
311 1 8.020453188977669 43.183434262792126 -1.352760636840553 0 0 0
312 1 7.582969044493737 44.935169618943554 0.45473945239293306 0 0 0
313 1 7.1503951538403925 46.684660719596856 2.2622395248262452 0 0 0
314 1 6.7158617906889475 48.438333912979196 4.069739639459473 0 0 0
315 1 6.2706160407729215 50.19862254343139 5.877239789268038 0 0 0
316 1 10.654804313319033 40.112232428382576 -6.775261019425675 0 0 0
317 1 10.214580794871367 41.86662431299852 -4.9677610273485 0 0 0
318 1 9.77609797334432 43.61970875686193 -3.160260939033993 0 0 0
319 1 9.340232754099233 45.37179254032619 -1.352760868323862 0 0 0
320 1 8.903671084287907 47.12483730750065 0.45473922448304627 0 0 0
321 1 8.462892898676174 48.88037328740763 2.262239245283586 0 0 0
322 1 8.020453181881948 50.63595557405727 4.069739364116208 0 0 0
323 1 7.582969041391763 52.3876909253924 5.877239451712933 0 0 0
324 1 11.968701077548019 42.304325981964205 -6.77526124815086 0 0 0
325 1 11.531234558225776 44.05723010951595 -4.967761149323433 0 0 0
326 1 11.093849755518093 45.81047778611673 -3.160261135314965 0 0 0
327 1 10.654804309279271 47.56475374206581 -1.3527610197518853 0 0 0
328 1 10.214580790053844 49.31914562790768 0.45473897269749036 0 0 0
329 1 9.77609796996667 51.072230070428866 2.262239060465471 0 0 0
330 1 9.340232749837696 52.824313855367016 4.069739131385659 0 0 0
331 1 8.90367108119473 54.57735861972122 5.877239222069413 0 0 0
332 1 13.284944194528947 44.49565102349961 -6.775261444954961 0 0 0
333 1 12.84643248674081 46.24942735428302 -4.967761377801505 0 0 0
334 1 12.407324463273312 48.00338464252666 -3.160261320612435 0 0 0
335 1 11.968701065184305 49.75684729670785 -1.3527612503574076 0 0 0
336 1 11.531234548375934 51.50975142283212 0.45473885076614706 0 0 0
337 1 11.093849749614947 53.2629991017697 2.2622388634766235 0 0 0
338 1 10.654804302984815 55.01727505773359 4.069738979760223 0 0 0
339 1 10.21458078576481 56.771666940932285 5.877238971746766 0 0 0
340 1 14.599444489584812 46.687954752824574 -6.775261700667378 0 0 0
341 1 14.160906634457362 48.441514401378505 -4.967761643443434 0 0 0
342 1 13.722853380652467 50.19481513025641 -3.160261514623049 0 0 0
343 1 13.284944184202502 51.94817233699691 -1.3527614467950237 0 0 0
344 1 12.846432478045784 53.701948670543125 0.45473862157953326 0 0 0
345 1 12.407324455409054 55.45590596051179 2.2622386781683193 0 0 0
346 1 11.968701059649263 57.20936861306338 4.06973874932363 0 0 0
347 1 11.53123454243935 58.96227273772829 5.877238849525631 0 0 0
348 1 15.91462874168451 48.8796996483295 -6.775261922791269 0 0 0
349 1 15.476469937536478 50.633148421145016 -4.967761808192877 0 0 0
350 1 15.038101258975573 52.38675766119511 -3.1602617292214292 0 0 0
351 1 14.59944447808094 54.140476066167274 -1.352761702326229 0 0 0
352 1 14.160906625941308 55.89403571669438 0.45473835616764974 0 0 0
353 1 13.722853377814161 57.64733644634783 2.2622384842188366 0 0 0
354 1 13.28494418192625 59.40069365609764 4.0697385535290795 0 0 0
355 1 17.229825625695838 51.0715849183644 -6.775262083466035 0 0 0
356 1 16.791354136066474 52.82520014215748 -4.967762029275505 0 0 0
357 1 16.352894763792648 54.578767425574334 -3.1602620026033095 0 0 0
358 1 15.91462873141954 56.332220960301775 -1.3527619237003485 0 0 0
359 1 15.476469931484132 58.085669734555545 0.45473819131995497 0 0 0
360 1 18.544779958650594 53.26353981047024 -6.775262268805295 0 0 0
361 1 18.106443481603918 55.01705170967974 -4.9677622036147095 0 0 0
362 1 17.668167625768007 56.77054929903158 -3.160262130582437 0 0 0
363 1 17.229825619089937 58.524106230296574 -1.3527620845036785 0 0 0
364 1 19.85993449566888 55.45538824899602 -6.7752623670293595 0 0 0
365 1 19.421589636234643 57.20893099478325 -4.9677623352451 0 0 0
366 1 18.98318950088084 58.96250173009981 -3.1602622587011218 0 0 0
367 1 21.17500203145309 57.647303051410056 -6.775262459802939 0 0 0
368 1 20.736618599815415 59.40085463815819 -4.9677623823615065 0 0 0
369 1 1.000736596260893 18.96908110881065 -6.7752595143590755 0 0 0
370 1 0.6644212371094653 20.845519079303806 -4.967759385576818 0 0 0
371 1 0.28972182415252234 22.639963960170242 -3.160259409046759 0 0 0
372 1 2.3602157010882934 21.231638858415614 -6.775259585312556 0 0 0
373 1 1.8936061287910348 23.08115734011914 -4.967759523699801 0 0 0
374 1 1.3552251357321126 24.79893007417703 -3.1602595181822655 0 0 0
375 1 1.0007366228680752 26.421602423688334 -1.352759514372223 0 0 0
376 1 0.6644212330559185 28.29804041505492 0.45474056992807 0 0 0
377 1 0.2897217450874905 30.092485242418853 2.262240600378967 0 0 0
378 1 3.617002165473039 23.468444981244282 -6.7752597326791655 0 0 0
379 1 3.208367078666882 25.21269448296254 -4.967759719405647 0 0 0
380 1 2.774809604212635 26.933224599013208 -3.160259672083135 0 0 0
381 1 2.360215686244146 28.68416018414343 -1.352759591639606 0 0 0
382 1 1.8936061429429003 30.533678670435584 0.45474047408133145 0 0 0
383 1 1.3552251352698192 32.25145136683647 2.262240487319669 0 0 0
384 1 1.000736521344919 33.874123832726745 4.069740480009844 0 0 0
385 1 0.6644212173972619 35.75056171519255 5.877240528835084 0 0 0
386 1 4.967175204828379 25.640639553701455 -6.775260017253891 0 0 0
387 1 4.532637577536349 27.393223657414488 -4.9677598964567915 0 0 0
388 1 4.068619387113316 29.15730798890261 -3.160259796677061 0 0 0
389 1 3.617002163904246 30.92096631699993 -1.3527597349494926 0 0 0
390 1 3.2083671152693967 32.66521578442089 0.45474027977491766 0 0 0
391 1 2.7748096232916737 34.38574593704171 2.2622403298906875 0 0 0
392 1 2.3602157126285306 36.13668149397942 4.069740427927339 0 0 0
393 1 1.8936061629416798 37.98620000554853 5.877240472574742 0 0 0
394 1 6.27061604835508 27.84105858395636 -6.775260211433272 0 0 0
395 1 5.821171346518355 29.59618840833722 -4.967760154808248 0 0 0
396 1 5.388983831554242 31.343024610722317 -3.1602600617345242 0 0 0
397 1 4.967175186836897 33.093160874391394 -1.352760016432015 0 0 0
398 1 4.532637551902866 34.84574498604962 0.4547401025675693 0 0 0
399 1 4.068619364720902 36.6098293083539 2.2622402035613876 0 0 0
400 1 3.6170021450689234 38.3734876305847 4.069740265643758 0 0 0
401 1 3.2083670576702445 40.11773711698063 5.877240279655069 0 0 0
402 1 7.582969061180606 30.030126978421443 -6.775260547814506 0 0 0
403 1 7.15039516754311 31.779618083192837 -4.967760475474549 0 0 0
404 1 6.715861803250732 33.53329128324588 -3.1602603615763254 0 0 0
405 1 6.2706160504908155 35.293579915850465 -1.3527602118640185 0 0 0
406 1 5.821171344830347 37.048709737763 0.45473984406533224 0 0 0
407 1 5.388983838369157 38.79554593191917 2.2622399366613783 0 0 0
408 1 4.967175201067917 40.545682200346754 4.069739983107206 0 0 0
409 1 4.532637575129286 42.298266304057584 5.877240102662178 0 0 0
410 1 8.90367109662813 32.219794671808025 -6.775260775493078 0 0 0
411 1 8.46289290705245 33.975330654084765 -4.967760753697658 0 0 0
412 1 8.02045319077699 35.73091294268354 -3.160260636468142 0 0 0
413 1 7.58296904333929 37.48264830409756 -1.3527605481811036 0 0 0
414 1 7.1503951505677605 39.232139403838424 0.45473952389218386 0 0 0
415 1 6.7158617837905865 40.98581260401715 2.262239639295644 0 0 0
416 1 6.270616033542851 42.74610123048641 4.06973978949233 0 0 0
417 1 5.821171333730803 44.501231050547254 5.877239844614539 0 0 0
418 1 10.214580809525799 34.41410299620346 -6.775261027041191 0 0 0
419 1 9.776097984935177 36.167187440996365 -4.9677609390662 0 0 0
420 1 9.340232763551612 37.91927122780094 -3.1602608685630593 0 0 0
421 1 8.903671092692647 39.672315996433476 -1.3527607765897065 0 0 0
422 1 8.462892905425377 41.42785197681142 0.45473924497288976 0 0 0
423 1 8.02045318845775 43.18343426311977 2.2622393633902997 0 0 0
424 1 7.582969045713895 44.9351696178067 4.069739452342993 0 0 0
425 1 7.150395153396275 46.68466072030039 5.877239525631576 0 0 0
426 1 11.53123456483894 36.604708793357155 -6.775261148575143 0 0 0
427 1 11.093849761389336 38.3579564703987 -4.967761135360449 0 0 0
428 1 10.654804313499653 40.11223242810559 -3.160261019285994 0 0 0
429 1 10.214580794528402 41.866624313435175 -1.3527610270719672 0 0 0
430 1 9.776097973398379 43.61970875652889 0.454739060981134 0 0 0
431 1 9.340232753838052 45.37179253992223 2.2622391319857296 0 0 0
432 1 8.903671084528838 47.124837307585445 4.069739224049243 0 0 0
433 1 8.462892898429331 48.880373287311095 5.877239246115176 0 0 0
434 1 12.846432501515878 38.79690603949981 -6.7752613772392545 0 0 0
435 1 12.4073244767376 40.55086332972028 -4.9677613202178925 0 0 0
436 1 11.968701077705902 42.304325981935584 -3.160261248876162 0 0 0
437 1 11.531234557950185 44.05723010941437 -1.3527611491527731 0 0 0
438 1 11.093849755802466 45.8104777859781 0.45473886458166907 0 0 0
439 1 10.654804309342794 47.56475374207991 2.262238980597059 0 0 0
440 1 10.214580791551853 49.31914562700451 4.069738972649917 0 0 0
441 1 9.776097969887033 51.07223007043931 5.877239060925989 0 0 0