#LAMMPS data file
1152 atoms
2 atom types
-125.1250000000 125.1250000000 xlo xhi
-59.6201706000 59.6201706000 ylo yhi
-7.2300000000 7.2300000000 zlo zhi
0.0 0.0 0.0 xy xz yz

Atoms # atomic

1 1 0.6644212708 58.1081256377 -6.7752594484
2 1 0.2897216328 52.4500491969 -6.7752594027
3 1 1.3552251257 54.6090153125 -6.7752595169
4 1 1.0007365732 56.2316876709 -4.9677595145
5 1 0.6644211939 58.1081256165 -3.1602594134
6 1 1.0007365956 48.7791663818 -6.7752595146
7 1 0.6644212136 50.6556043287 -4.9677594083
8 1 0.2897216610 52.4500491765 -3.1602594044
9 1 1.3552251301 54.6090152965 -3.1602595230
10 1 1.0007365153 56.2316877287 -1.3527595100
11 1 0.6644212014 58.1081256136 0.4547405170
12 1 0.6644213085 43.2030830739 -6.7752594497
13 1 0.2897217227 44.9975279382 -4.9677594060
14 1 1.3552251318 47.1564940099 -4.9677595175
15 1 1.0007365628 48.7791664096 -3.1602595150
16 1 0.6644211922 50.6556043250 -1.3527594390
17 1 0.2897216363 52.4500491507 0.4547406042
18 1 1.3552251320 54.6090153171 0.4547404924
19 1 1.0007365561 56.2316876889 2.2622404757
20 1 0.6644212750 58.1081256367 4.0697405266
21 1 0.2897216829 37.5450065941 -6.7752594015
22 1 1.3552251416 39.7039727459 -6.7752595210
23 1 1.0007366464 41.3266450322 -4.9677595173
24 1 0.6644212349 43.2030830511 -3.1602593767
25 1 0.2897217902 44.9975279013 -1.3527594040
26 1 1.3552251324 47.1564940051 -1.3527595134
27 1 1.0007365567 48.7791664215 0.4547404921
28 1 0.6644212301 50.6556043342 2.2622404613
29 1 0.2897216506 52.4500492303 4.0697406055
30 1 1.3552251223 54.6090152766 4.0697404938
31 1 1.0007365895 56.2316876614 5.8772404947
32 1 1.0007365639 33.8741237950 -6.7752595202
33 1 0.6644212449 35.7505617275 -4.9677594414
34 1 0.2897216599 37.5450065821 -3.1602594053
35 1 1.3552251436 39.7039727347 -3.1602595245
36 1 1.0007365666 41.3266451141 -1.3527595197
37 1 0.6644212408 43.2030830550 0.4547405310
38 1 0.2897217164 44.9975278983 2.2622406064
39 1 1.3552251377 47.1564940342 2.2622404971
40 1 1.0007366271 48.7791663462 4.0697404861
41 1 0.6644212569 50.6556043392 5.8772405661
42 1 0.6644212632 28.2980404179 -6.7752594883
43 1 0.2897217358 30.0924852941 -4.9677594012
44 1 1.3552251284 32.2514513581 -4.9677595149
45 1 1.0007365605 33.8741237974 -3.1602595123
46 1 0.6644211903 35.7505617100 -1.3527594243
47 1 0.2897216767 37.5450065683 0.4547405964
48 1 1.3552251452 39.7039727329 0.4547404959
49 1 1.0007366279 41.3266450551 2.2622404853
50 1 0.6644213141 43.2030830783 4.0697404954
51 1 0.2897217993 44.9975279589 5.8772406029
52 1 1.3552251242 47.1564939989 5.8772404836
53 1 0.2897217682 22.6399639965 -6.7752594019
54 1 1.3552251332 24.7989300708 -6.7752595150
55 1 1.0007366369 26.4216024065 -4.9677595125
56 1 0.6644212411 28.2980404133 -3.1602594193
57 1 0.2897217087 30.0924852505 -1.3527594047
58 1 1.3552251358 32.2514513771 -1.3527595225
59 1 1.0007365095 33.8741238440 0.4547404834
60 1 0.6644211634 35.7505616986 2.2622405437
61 1 0.2897216364 37.5450065658 4.0697406005
62 1 1.3552251464 39.7039727526 4.0697404933
63 1 1.0007366683 41.3266450166 5.8772404897
64 1 1.0007365963 18.9690811088 -6.7752595144
65 1 0.6644212371 20.8455190793 -4.9677593856
66 1 0.2897218242 22.6399639602 -3.1602594090
67 1 1.3552251357 24.7989300742 -3.1602595182
68 1 1.0007366229 26.4216024237 -1.3527595144
69 1 0.6644212331 28.2980404151 0.4547405699
70 1 0.2897217451 30.0924852424 2.2622406004
71 1 1.3552251353 32.2514513668 2.2622404873
72 1 1.0007365213 33.8741238327 4.0697404800
73 1 0.6644212174 35.7505617152 5.8772405288
74 1 0.6644212113 13.3929977392 -6.7752594836
75 1 0.2897217260 15.1874426544 -4.9677594020
76 1 1.3552251232 17.3464087099 -4.9677595232
77 1 1.0007365285 18.9690811761 -3.1602595200
78 1 0.6644212178 20.8455190798 -1.3527594058
79 1 0.2897217691 22.6399639035 0.4547406012
80 1 1.3552251459 24.7989301075 0.4547404825
81 1 1.0007366088 26.4216024395 2.2622404788
82 1 0.6644212576 28.2980404213 4.0697404915
83 1 0.2897217094 30.0924852708 5.8772406055
84 1 1.3552251326 32.2514513684 5.8772404959
85 1 0.2897217132 7.7349212720 -6.7752594027
86 1 1.3552251342 9.8938874216 -6.7752595153
87 1 1.0007365487 11.5165598184 -4.9677595162
88 1 0.6644211805 13.3929977288 -3.1602593916
89 1 0.2897217419 15.1874426203 -1.3527594045
90 1 1.3552251289 17.3464087087 -1.3527595137
91 1 1.0007365294 18.9690811825 0.4547404899
92 1 0.6644212450 20.8455190915 2.2622404733
93 1 0.2897218436 22.6399639724 4.0697406082
94 1 1.3552251328 24.7989300626 4.0697404906
95 1 1.0007366375 26.4216024124 5.8772404902
96 1 1.0007365483 4.0640385280 -6.7752595190
97 1 0.6644212225 5.9404764271 -4.9677594483
98 1 0.2897217036 7.7349212777 -3.1602594008
99 1 1.3552251347 9.8938874085 -3.1602595180
100 1 1.0007365093 11.5165598600 -1.3527595219
101 1 0.6644211925 13.3929977381 0.4547405738
102 1 0.2897217377 15.1874425939 2.2622406030
103 1 1.3552251307 17.3464087350 2.2622404933
104 1 1.0007365768 18.9690811310 4.0697404926
105 1 0.6644212640 20.8455190917 5.8772404847
106 1 0.6644212176 -1.5120448899 -6.7752594496
107 1 0.2897218453 0.2824000657 -4.9677594043
108 1 1.3552251220 2.4413660479 -4.9677595129
109 1 1.0007365449 4.0640385276 -3.1602595128
110 1 0.6644211894 5.9404764165 -1.3527594545
111 1 0.2897217064 7.7349212806 0.4547405974
112 1 1.3552251327 9.8938874024 0.4547404904
113 1 1.0007365259 11.5165598511 2.2622404855
114 1 0.6644212239 13.3929977499 4.0697404925
115 1 0.2897217518 15.1874426379 5.8772406056
116 1 1.3552251267 17.3464087242 5.8772404902
117 1 0.2897216932 -7.1701212815 -6.7752594017
118 1 1.3552251288 -5.0111552552 -6.7752595178
119 1 1.0007364753 -3.3884827227 -4.9677595149
120 1 0.6644211864 -1.5120449013 -3.1602594141
121 1 0.2897218658 0.2824000447 -1.3527594045
122 1 1.3552251256 2.4413660560 -1.3527595141
123 1 1.0007365439 4.0640385256 0.4547404848
124 1 0.6644211783 5.9404764131 2.2622405717
125 1 0.2897217114 7.7349212763 4.0697405954
126 1 1.3552251340 9.8938874072 4.0697404892
127 1 1.0007365537 11.5165598175 5.8772404965
128 1 1.0007365132 -10.8410040652 -6.7752595154
129 1 0.6644211753 -8.9645662144 -4.9677594213
130 1 0.2897216771 -7.1701213046 -3.1602594044
131 1 1.3552251325 -5.0111552507 -3.1602595159
132 1 1.0007364533 -3.3884826998 -1.3527595192
133 1 0.6644211976 -1.5120448915 0.4547405582
134 1 0.2897218595 0.2824000322 2.2622406010
135 1 1.3552251267 2.4413660681 2.2622404868
136 1 1.0007365420 4.0640385294 4.0697404737
137 1 0.6644212090 5.9404764239 5.8772405707
138 1 0.6644211869 -16.4170875142 -6.7752594587
139 1 0.2897217335 -14.6226426005 -4.9677594049
140 1 1.3552251263 -12.4636765688 -4.9677595186
141 1 1.0007364816 -10.8410040356 -3.1602595115
142 1 0.6644211422 -8.9645662230 -1.3527594173
143 1 0.2897216854 -7.1701213272 0.4547406008
144 1 1.3552251352 -5.0111552438 0.4547404905
145 1 1.0007364785 -3.3884827207 2.2622404845
146 1 0.6644212278 -1.5120448812 4.0697405140
147 1 0.2897218862 0.2824000730 5.8772406014
148 1 1.3552251209 2.4413660406 5.8772404910
149 1 0.2897217733 -22.0751639217 -6.7752593994
150 1 1.3552251139 -19.9161978603 -6.7752595141
151 1 1.0007365520 -18.2935254293 -4.9677595210
152 1 0.6644211790 -16.4170875132 -3.1602593679
153 1 0.2897217254 -14.6226426569 -1.3527594048
154 1 1.3552251338 -12.4636765458 -1.3527595165
155 1 1.0007364644 -10.8410040179 0.4547404846
156 1 0.6644211642 -8.9645662140 2.2622405165
157 1 0.2897216869 -7.1701213040 4.0697406037
158 1 1.3552251320 -5.0111552408 4.0697404904
159 1 1.0007365003 -3.3884827437 5.8772404853
160 1 1.0007365581 -25.7460467819 -6.7752595070
161 1 0.6644212328 -23.8696088305 -4.9677594400
162 1 0.2897217769 -22.0751639424 -3.1602594011
163 1 1.3552251161 -19.9161978639 -3.1602595133
164 1 1.0007365267 -18.2935253935 -1.3527595250
165 1 0.6644212118 -16.4170874982 0.4547405558
166 1 0.2897217409 -14.6226426523 2.2622406049
167 1 1.3552251331 -12.4636765444 2.2622404957
168 1 1.0007365086 -10.8410040599 4.0697404845
169 1 0.6644211966 -8.9645662050 5.8772405294
170 1 0.6644212964 -31.3221301627 -6.7752594441
171 1 0.2897216758 -29.5276853152 -4.9677594095
172 1 1.3552251104 -27.3687191989 -4.9677595248
173 1 1.0007365070 -25.7460467361 -3.1602595124
174 1 0.6644211655 -23.8696088522 -1.3527594639
175 1 0.2897217516 -22.0751639475 0.4547406029
176 1 1.3552251173 -19.9161978651 0.4547404902
177 1 1.0007365415 -18.2935254084 2.2622404886
178 1 0.6644212206 -16.4170874989 4.0697404832
179 1 0.2897217205 -14.6226426112 5.8772406045
180 1 1.3552251276 -12.4636765538 5.8772404898
181 1 0.2897217826 -36.9802066866 -6.7752594049
182 1 1.3552251205 -34.8212405302 -6.7752595152
183 1 1.0007366718 -33.1985682558 -4.9677595166
184 1 0.6644212336 -31.3221301810 -3.1602593711
185 1 0.2897217352 -29.5276853450 -1.3527594080
186 1 1.3552251127 -27.3687192214 -1.3527595198
187 1 1.0007364864 -25.7460467195 0.4547404925
188 1 0.6644211880 -23.8696088491 2.2622405141
189 1 0.2897217703 -22.0751639240 4.0697406049
190 1 1.3552251133 -19.9161978691 4.0697404884
191 1 1.0007365596 -18.2935254306 5.8772404948
192 1 1.0007366445 -40.6510895800 -6.7752595118
193 1 0.6644212748 -38.7746515373 -4.9677594066
194 1 0.2897217774 -36.9802067272 -3.1602594036
195 1 1.3552251262 -34.8212405258 -3.1602595247
196 1 1.0007365842 -33.1985681670 -1.3527595238
197 1 0.6644212138 -31.3221301887 0.4547405445
198 1 0.2897216563 -29.5276853595 2.2622406023
199 1 1.3552251174 -27.3687191847 2.2622404909
200 1 1.0007365291 -25.7460467570 4.0697404757
201 1 0.6644212580 -23.8696088219 5.8772405284
202 1 0.6644212930 -46.2271728971 -6.7752594029
203 1 0.2897216218 -44.4327280627 -4.9677594054
204 1 1.3552251428 -42.2737618715 -4.9677595200
205 1 1.0007365992 -40.6510895385 -3.1602595119
206 1 0.6644212164 -38.7746515559 -1.3527594587
207 1 0.2897217755 -36.9802067128 0.4547406051
208 1 1.3552251239 -34.8212405511 0.4547404898
209 1 1.0007366020 -33.1985681841 2.2622404851
210 1 0.6644212761 -31.3221301715 4.0697404744
211 1 0.2897217375 -29.5276852801 5.8772406018
212 1 1.3552251031 -27.3687192349 5.8772404887
213 1 0.2897217905 -51.8852493659 -6.7752594067
214 1 1.3552251261 -49.7262832548 -6.7752595247
215 1 1.0007366099 -48.1036108952 -4.9677595181
216 1 0.6644212123 -46.2271729184 -3.1602593959
217 1 0.2897216527 -44.4327280949 -1.3527593973
218 1 1.3552251461 -42.2737618776 -1.3527595157
219 1 1.0007365776 -40.6510895200 0.4547404891
220 1 0.6644212465 -38.7746515535 2.2622404954
221 1 0.2897217639 -36.9802066741 4.0697406031
222 1 1.3552251188 -34.8212405489 4.0697404984
223 1 1.0007366708 -33.1985682506 5.8772404891
224 1 1.0007366488 -55.5561322742 -6.7752595239
225 1 0.6644212606 -53.6796942331 -4.9677593783
226 1 0.2897217619 -51.8852494072 -3.1602594114
227 1 1.3552251334 -49.7262832717 -3.1602595221
228 1 1.0007365443 -48.1036108274 -1.3527595104
229 1 0.6644212409 -46.2271729136 0.4547404772
230 1 0.2897216144 -44.4327280562 2.2622406127
231 1 1.3552251418 -42.2737618757 2.2622404964
232 1 1.0007366350 -40.6510895753 4.0697404803
233 1 0.6644213051 -38.7746515324 5.8772405619
234 1 0.2897217279 -59.3377706917 -4.9677594028
235 1 1.3552251190 -57.1788045906 -4.9677595239
236 1 1.0007365763 -55.5561322068 -3.1602595161
237 1 0.6644211925 -53.6796942592 -1.3527594298
238 1 0.2897217695 -51.8852494103 0.4547406022
239 1 1.3552251324 -49.7262832610 0.4547404962
240 1 1.0007366176 -48.1036109012 2.2622404868
241 1 0.6644213208 -46.2271728887 4.0697404756
242 1 0.2897216561 -44.4327280017 5.8772406028
243 1 1.3552251326 -42.2737619018 5.8772404908
244 1 0.2897217038 -59.3377707249 -1.3527594021
245 1 1.3552251250 -57.1788045866 -1.3527595171
246 1 1.0007365387 -55.5561321696 0.4547404806
247 1 0.6644212546 -53.6796942423 2.2622404679
248 1 0.2897217461 -51.8852493439 4.0697406041
249 1 1.3552251248 -49.7262832753 4.0697404958
250 1 1.0007366718 -48.1036109517 5.8772404973
251 1 0.2897217102 -59.3377706906 2.2622406061
252 1 1.3552251191 -57.1788045990 2.2622405062
253 1 1.0007366550 -55.5561322846 4.0697404871
254 1 0.6644213193 -53.6796942188 5.8772405843
255 1 0.2897216954 -59.3377706886 5.8772406026
256 1 1.3552251202 -57.1788045648 5.8772404890
257 1 -2.4202283681 58.1081273341 -3.1602594037
258 1 -0.8779039068 57.7175493739 -4.9677593870
259 1 -2.4202283815 58.1081273371 0.4547407407
260 1 -0.8779016322 54.0368254519 -4.9677593947
261 1 -0.8779040678 55.8904668411 -3.1602594483
262 1 -0.8779037079 57.7175493882 -1.3527594446
263 1 -2.4202283639 58.1081273193 4.0697407141
264 1 -2.4202283693 50.6556060409 -4.9677593716
265 1 -2.0455279942 52.4500511145 -3.1602593176
266 1 -0.8779016309 54.0368254499 -1.3527593902
267 1 -0.8779040620 55.8904668406 0.4547405632
268 1 -0.8779038903 57.7175493625 2.2622405186
269 1 -2.4202283563 58.1081273227 -6.7752593850
270 1 -2.4202284029 50.6556060609 -1.3527593405
271 1 -2.0455279895 52.4500511283 0.4547406708
272 1 -0.8779016288 54.0368254523 2.2622406088
273 1 -0.8779040783 55.8904668324 4.0697405607
274 1 -0.8779040002 57.7175493669 5.8772405798
275 1 -0.8779040626 48.4379455360 -4.9677594513
276 1 -0.8779037627 50.2650281459 -3.1602594392
277 1 -2.4202283684 50.6556060389 2.2622407377
278 1 -2.0455279588 52.4500510907 4.0697406724
279 1 -0.8779016292 54.0368254488 5.8772406095
280 1 -0.8779040733 55.8904668341 -6.7752594557
281 1 -2.0455279851 44.9975297977 -4.9677593115
282 1 -0.8779016080 46.5843041703 -3.1602593916
283 1 -0.8779040541 48.4379455308 -1.3527594438
284 1 -0.8779037207 50.2650281552 0.4547405645
285 1 -2.4202283411 50.6556060234 5.8772406298
286 1 -2.0455279722 52.4500511214 -6.7752593155
287 1 -2.4202283315 43.2030847431 -3.1602593998
288 1 -2.0455280904 44.9975298626 -1.3527593243
289 1 -0.8779016086 46.5843041688 0.4547406092
290 1 -0.8779040635 48.4379455307 2.2622405575
291 1 -0.8779039991 50.2650281238 4.0697405793
292 1 -0.8779039917 42.8125068265 -4.9677594043
293 1 -2.4202283629 43.2030847583 0.4547407481
294 1 -2.0455279934 44.9975297939 2.2622406649
295 1 -0.8779016098 46.5843041710 4.0697406094
296 1 -0.8779040697 48.4379455388 5.8772405546
297 1 -0.8779038983 50.2650281225 -6.7752594251
298 1 -0.8779016344 39.1317828603 -4.9677593909
299 1 -0.8779040540 40.9854242532 -3.1602594440
300 1 -0.8779037380 42.8125068124 -1.3527594720
301 1 -2.4202283311 43.2030847382 4.0697407178
302 1 -2.0455280654 44.9975298081 5.8772406764
303 1 -0.8779016090 46.5843041665 -6.7752593900
304 1 -2.4202283941 35.7505634282 -4.9677593460
305 1 -2.0455279827 37.5450084938 -3.1602593177
306 1 -0.8779016343 39.1317828583 -1.3527593928
307 1 -0.8779040484 40.9854242415 0.4547405574
308 1 -0.8779039106 42.8125068496 2.2622405302
309 1 -2.4202283008 43.2030847265 -6.7752593843
310 1 -2.4202284026 35.7505634356 -1.3527593980
311 1 -2.0455280303 37.5450085504 0.4547406758
312 1 -0.8779016366 39.1317828609 2.2622406105
313 1 -0.8779040613 40.9854242376 4.0697405623
314 1 -0.8779040833 42.8125067964 5.8772405944
315 1 -0.8779040512 33.5329029183 -4.9677594503
316 1 -0.8779038007 35.3599855064 -3.1602594082
317 1 -2.4202284095 35.7505634373 2.2622406937
318 1 -2.0455279865 37.5450085371 4.0697406658
319 1 -0.8779016361 39.1317828587 5.8772406055
320 1 -0.8779040631 40.9854242462 -6.7752594560
321 1 -2.0455280208 30.0924871791 -4.9677593191
322 1 -0.8779016148 31.6792615432 -3.1602593942
323 1 -0.8779040439 33.5329029245 -1.3527594488
324 1 -0.8779036363 35.3599854955 0.4547405724
325 1 -2.4202284001 35.7505634268 5.8772407395
326 1 -2.0455280226 37.5450085195 -6.7752593274
327 1 -2.4202283424 28.2980421095 -3.1602593629
328 1 -2.0455279997 30.0924871645 -1.3527593208
329 1 -0.8779016157 31.6792615433 0.4547406043
330 1 -0.8779040402 33.5329029291 2.2622405573
331 1 -0.8779036884 35.3599854982 4.0697405205
332 1 -0.8779039245 27.9074641969 -4.9677594130
333 1 -2.4202283795 28.2980421292 0.4547406675
334 1 -2.0455280398 30.0924871684 2.2622406734
335 1 -0.8779016145 31.6792615439 4.0697406087
336 1 -0.8779040478 33.5329029231 5.8772405633
337 1 -0.8779038429 35.3599854814 -6.7752594629
338 1 -0.8779016122 24.2267402228 -4.9677593939
339 1 -0.8779040491 26.0803815948 -3.1602594537
340 1 -0.8779038156 27.9074642404 -1.3527594582
341 1 -2.4202283771 28.2980421253 4.0697406860
342 1 -2.0455279913 30.0924871549 5.8772406733
343 1 -0.8779016154 31.6792615421 -6.7752593936
344 1 -2.4202283557 20.8455207791 -4.9677593850
345 1 -2.0455281425 22.6399659179 -3.1602593189
346 1 -0.8779016112 24.2267402256 -1.3527593943
347 1 -0.8779040452 26.0803815794 0.4547405537
348 1 -0.8779037750 27.9074642386 2.2622405586
349 1 -2.4202283365 28.2980421019 -6.7752593557
350 1 -2.4202284221 20.8455208124 -1.3527593288
351 1 -2.0455280878 22.6399658761 0.4547406713
352 1 -0.8779016124 24.2267402284 2.2622406077
353 1 -0.8779040481 26.0803815807 4.0697405528
354 1 -0.8779039046 27.9074642239 5.8772406040
355 1 -0.8779040540 18.6278602966 -4.9677594451
356 1 -0.8779037463 20.4549427991 -3.1602594770
357 1 -2.4202284147 20.8455208121 2.2622407014
358 1 -2.0455281430 22.6399658814 4.0697406700
359 1 -0.8779016125 24.2267402242 5.8772406086
360 1 -0.8779040550 26.0803815921 -6.7752594514
361 1 -2.0455280531 15.1874445769 -4.9677593198
362 1 -0.8779016201 16.7742188887 -3.1602593939
363 1 -0.8779040442 18.6278602766 -1.3527594487
364 1 -0.8779036736 20.4549428654 0.4547405527
365 1 -2.4202283479 20.8455207785 5.8772406583
366 1 -2.0455280552 22.6399658720 -6.7752593211
367 1 -2.4202283907 13.3929994626 -3.1602593534
368 1 -2.0455280774 15.1874445803 -1.3527593245
369 1 -0.8779016225 16.7742188927 0.4547406089
370 1 -0.8779040478 18.6278602712 2.2622405554
371 1 -0.8779038608 20.4549428160 4.0697406137
372 1 -0.8779038052 13.0024214923 -4.9677594211
373 1 -2.4202284394 13.3929994881 0.4547407049
374 1 -2.0455280763 15.1874445529 2.2622406703
375 1 -0.8779016205 16.7742188926 4.0697406072
376 1 -0.8779040576 18.6278602877 5.8772405506
377 1 -0.8779039548 20.4549428094 -6.7752594106
378 1 -0.8779016012 9.3216975702 -4.9677593914
379 1 -0.8779040475 11.1753389639 -3.1602594450
380 1 -0.8779036656 13.0024215118 -1.3527594911
381 1 -2.4202284269 13.3929994798 4.0697406819
382 1 -2.0455280811 15.1874445650 5.8772406749
383 1 -0.8779016196 16.7742188878 -6.7752593889
384 1 -2.4202284172 5.9404781760 -4.9677593370
385 1 -2.0455280135 7.7349232214 -3.1602593230
386 1 -0.8779016034 9.3216975716 -1.3527593907
387 1 -0.8779040423 11.1753389463 0.4547405587
388 1 -0.8779036874 13.0024215362 2.2622405492
389 1 -2.4202283789 13.3929994561 -6.7752593664
390 1 -2.4202283970 5.9404781722 -1.3527593527
391 1 -2.0455280240 7.7349232363 0.4547406745
392 1 -0.8779016033 9.3216975725 2.2622406080
393 1 -0.8779040483 11.1753389430 4.0697405545
394 1 -0.8779038070 13.0024215055 5.8772406196
395 1 -0.8779040407 3.7228176276 -4.9677594462
396 1 -0.8779037184 5.5499002375 -3.1602594103
397 1 -2.4202283940 5.9404781723 2.2622406918
398 1 -2.0455280262 7.7349232328 4.0697406701
399 1 -0.8779016005 9.3216975730 5.8772406074
400 1 -0.8779040508 11.1753389612 -6.7752594496
401 1 -2.0455281610 0.2824020084 -4.9677593205
402 1 -0.8779016060 1.8691762652 -3.1602593938
403 1 -0.8779040386 3.7228176364 -1.3527594489
404 1 -0.8779036893 5.5499002382 0.4547405620
405 1 -2.4202284119 5.9404781755 5.8772407132
406 1 -2.0455280339 7.7349232260 -6.7752593282
407 1 -2.4202284171 -1.5120431422 -3.1602593428
408 1 -2.0455281921 0.2824020186 -1.3527593239
409 1 -0.8779016026 1.8691762653 0.4547406078
410 1 -0.8779040381 3.7228176383 2.2622405594
411 1 -0.8779036898 5.5499002402 4.0697405071
412 1 -0.8779037125 -1.9026212076 -4.9677594286
413 1 -2.4202284403 -1.5120431296 0.4547407069
414 1 -2.0455281771 0.2824019871 2.2622406706
415 1 -0.8779016027 1.8691762668 4.0697406083
416 1 -0.8779040401 3.7228176294 5.8772405640
417 1 -0.8779037308 5.5499002342 -6.7752594642
418 1 -0.8779016032 -5.5833450506 -4.9677593916
419 1 -0.8779040362 -3.7297036300 -3.1602594438
420 1 -0.8779036270 -1.9026211997 -1.3527594728
421 1 -2.4202284250 -1.5120431357 4.0697406916
422 1 -2.0455281915 0.2824019890 5.8772406739
423 1 -0.8779016063 1.8691762655 -6.7752593900
424 1 -2.4202284062 -8.9645644491 -4.9677593704
425 1 -2.0455280057 -7.1701193312 -3.1602593186
426 1 -0.8779016046 -5.5833450498 -1.3527593923
427 1 -0.8779040348 -3.7297036417 0.4547405571
428 1 -0.8779036748 -1.9026211767 2.2622405459
429 1 -2.4202284030 -1.5120431488 -6.7752593653
430 1 -2.4202284340 -8.9645644339 -1.3527593425
431 1 -2.0455280209 -7.1701193261 0.4547406735
432 1 -0.8779016051 -5.5833450475 2.2622406087
433 1 -0.8779040398 -3.7297036441 4.0697405579
434 1 -0.8779037754 -1.9026212027 5.8772405884
435 1 -0.8779040314 -11.1822249603 -4.9677594476
436 1 -0.8779035998 -9.3551424130 -3.1602594383
437 1 -2.4202284335 -8.9645644335 2.2622407230
438 1 -2.0455280097 -7.1701193522 4.0697406715
439 1 -0.8779016038 -5.5833450494 5.8772406084
440 1 -0.8779040423 -3.7297036332 -6.7752594469
441 1 -2.0455280360 -14.6226406847 -4.9677593209
442 1 -0.8779016049 -13.0358663529 -3.1602593921
443 1 -0.8779040250 -11.1822249643 -1.3527594448
444 1 -0.8779035203 -9.3551423988 0.4547405427
445 1 -2.4202284062 -8.9645644487 5.8772406772
446 1 -2.0455280066 -7.1701193476 -6.7752593207
447 1 -2.4202283934 -16.4170857646 -3.1602593146
448 1 -2.0455280371 -14.6226407052 -1.3527593261
449 1 -0.8779016061 -13.0358663502 0.4547406093
450 1 -0.8779040271 -11.1822249699 2.2622405595
451 1 -0.8779036716 -9.3551424050 4.0697405587
452 1 -0.8779037533 -16.8076637210 -4.9677594669
453 1 -2.4202284427 -16.4170857422 0.4547407095
454 1 -2.0455280470 -14.6226407219 2.2622406731
455 1 -0.8779016060 -13.0358663513 4.0697406117
456 1 -0.8779040345 -11.1822249660 5.8772405578
457 1 -0.8779037178 -9.3551424246 -6.7752594206
458 1 -0.8779016202 -20.4883876796 -4.9677593925
459 1 -0.8779040390 -18.6347462935 -3.1602594381
460 1 -0.8779036368 -16.8076636802 -1.3527595128
461 1 -2.4202284081 -16.4170857607 4.0697406506
462 1 -2.0455280215 -14.6226407006 5.8772406785
463 1 -0.8779016050 -13.0358663544 -6.7752593902
464 1 -2.4202283964 -23.8696071188 -4.9677594239
465 1 -2.0455281042 -22.0751620110 -3.1602593143
466 1 -0.8779016205 -20.4883876805 -1.3527593912
467 1 -0.8779040362 -18.6347463144 0.4547405599
468 1 -0.8779036983 -16.8076636848 2.2622405856
469 1 -2.4202283571 -16.4170857833 -6.7752593549
470 1 -2.4202284029 -23.8696071140 -1.3527593810
471 1 -2.0455280862 -22.0751619945 0.4547406749
472 1 -0.8779016197 -20.4883876775 2.2622406064
473 1 -0.8779040424 -18.6347463047 4.0697405516
474 1 -0.8779037784 -16.8076637107 5.8772406325
475 1 -0.8779040505 -26.0872676342 -4.9677594568
476 1 -0.8779037112 -24.2601850945 -3.1602593704
477 1 -2.4202283962 -23.8696071201 2.2622407275
478 1 -2.0455280860 -22.0751620267 4.0697406680
479 1 -0.8779016195 -20.4883876814 5.8772406056
480 1 -0.8779040442 -18.6347462841 -6.7752594490
481 1 -2.0455279412 -29.5276834607 -4.9677593172
482 1 -0.8779016122 -27.9409090341 -3.1602593947
483 1 -0.8779040446 -26.0872676212 -1.3527594531
484 1 -0.8779036488 -24.2601850949 0.4547405648
485 1 -2.4202283908 -23.8696071247 5.8772406951
486 1 -2.0455280798 -22.0751620540 -6.7752593185
487 1 -2.4202283239 -31.3221284868 -3.1602594049
488 1 -2.0455280202 -29.5276834101 -1.3527593231
489 1 -0.8779016141 -27.9409090345 0.4547406080
490 1 -0.8779040446 -26.0872676242 2.2622405585
491 1 -0.8779038095 -24.2601851051 4.0697405273
492 1 -0.8779039982 -31.7127063575 -4.9677594250
493 1 -2.4202283638 -31.3221284714 0.4547407051
494 1 -2.0455279454 -29.5276834370 2.2622406639
495 1 -0.8779016129 -27.9409090346 4.0697406075
496 1 -0.8779040579 -26.0872676342 5.8772405528
497 1 -0.8779038920 -24.2601850946 -6.7752594089
498 1 -0.8779016078 -35.3934303976 -4.9677593933
499 1 -0.8779040474 -33.5397890177 -3.1602594449
500 1 -0.8779037312 -31.7127063664 -1.3527594614
501 1 -2.4202283271 -31.3221284936 4.0697407428
502 1 -2.0455279873 -29.5276834546 5.8772406700
503 1 -0.8779016107 -27.9409090337 -6.7752593932
504 1 -2.4202283594 -38.7746498522 -4.9677594002
505 1 -2.0455280763 -36.9802047840 -3.1602593173
506 1 -0.8779016101 -35.3934304007 -1.3527593919
507 1 -0.8779040420 -33.5397890218 0.4547405559
508 1 -0.8779038018 -31.7127063521 2.2622405401
509 1 -2.4202282874 -31.3221285088 -6.7752593576
510 1 -2.4202283730 -38.7746498413 -1.3527593621
511 1 -2.0455280712 -36.9802047672 0.4547406688
512 1 -0.8779016139 -35.3934303989 2.2622406086
513 1 -0.8779040531 -33.5397890215 4.0697405609
514 1 -0.8779040568 -31.7127063951 5.8772405715
515 1 -0.8779040491 -40.9923103859 -4.9677594533
516 1 -0.8779037855 -39.1652277645 -3.1602594004
517 1 -2.4202283464 -38.7746498595 2.2622407439
518 1 -2.0455280417 -36.9802047990 4.0697406657
519 1 -0.8779016120 -35.3934304019 5.8772406057
520 1 -0.8779040598 -33.5397890181 -6.7752594559
521 1 -2.0455278938 -44.4327261481 -4.9677593085
522 1 -0.8779016066 -42.8459517656 -3.1602593929
523 1 -0.8779040421 -40.9923103784 -1.3527594453
524 1 -0.8779037456 -39.1652277796 0.4547405654
525 1 -2.4202283326 -38.7746498695 5.8772406890
526 1 -2.0455280633 -36.9802048035 -6.7752593186
527 1 -2.4202283416 -46.2271712070 -3.1602593930
528 1 -2.0455279419 -44.4327261163 -1.3527593237
529 1 -0.8779016074 -42.8459517683 0.4547406096
530 1 -0.8779040484 -40.9923103740 2.2622405618
531 1 -0.8779039711 -39.1652277998 4.0697405278
532 1 -0.8779038795 -46.6177490979 -4.9677594070
533 1 -2.4202283521 -46.2271712029 0.4547407504
534 1 -2.0455278746 -44.4327261700 2.2622406653
535 1 -0.8779016064 -42.8459517679 4.0697406088
536 1 -0.8779040587 -40.9923103802 5.8772405581
537 1 -0.8779039800 -39.1652277890 -6.7752594385
538 1 -0.8779015849 -50.2984730979 -4.9677593904
539 1 -0.8779040433 -48.4448317131 -3.1602594451
540 1 -0.8779036766 -46.6177490980 -1.3527594506
541 1 -2.4202282914 -46.2271712381 4.0697407041
542 1 -2.0455278945 -44.4327261784 5.8772406826
543 1 -0.8779016059 -42.8459517683 -6.7752593919
544 1 -2.4202283368 -53.6796925217 -4.9677594104
545 1 -2.0455280271 -51.8852474465 -3.1602593158
546 1 -0.8779015807 -50.2984731018 -1.3527593902
547 1 -0.8779040386 -48.4448317178 0.4547405576
548 1 -0.8779039432 -46.6177491062 2.2622405655
549 1 -2.4202282850 -46.2271712350 -6.7752594291
550 1 -2.4202283694 -53.6796925070 -1.3527593453
551 1 -2.0455280678 -51.8852473884 0.4547406649
552 1 -0.8779015754 -50.2984730993 2.2622406106
553 1 -0.8779040617 -48.4448317166 4.0697405558
554 1 -0.8779041312 -46.6177491316 5.8772406063
555 1 -0.8779040532 -55.8973530547 -4.9677594527
556 1 -0.8779037393 -54.0702704330 -3.1602594256
557 1 -2.4202283345 -53.6796925331 2.2622408068
558 1 -2.0455279830 -51.8852474780 4.0697406614
559 1 -0.8779015799 -50.2984731029 5.8772406069
560 1 -0.8779040533 -48.4448317116 -6.7752594591
561 1 -2.0455280343 -59.3377687879 -4.9677593115
562 1 -0.8779016217 -57.7509944346 -3.1602593946
563 1 -0.8779040405 -55.8973530503 -1.3527594370
564 1 -0.8779036695 -54.0702704688 0.4547405316
565 1 -2.4202283005 -53.6796925458 5.8772406722
566 1 -2.0455280575 -51.8852474509 -6.7752593172
567 1 -2.0455280349 -59.3377687484 -1.3527593246
568 1 -0.8779016196 -57.7509944387 0.4547406105
569 1 -0.8779040525 -55.8973530462 2.2622405620
570 1 -0.8779040549 -54.0702704692 4.0697405190
571 1 -2.0455280174 -59.3377687811 2.2622406647
572 1 -0.8779016196 -57.7509944357 4.0697406058
573 1 -0.8779040627 -55.8973530563 5.8772405578
574 1 -0.8779039963 -54.0702704641 -6.7752594368
575 1 -2.0455280081 -59.3377687905 5.8772406765
576 1 -0.8779016216 -57.7509944373 -6.7752593909
577 2 -0.2897125919 -59.3387592987 -6.7832038040
578 2 -0.2897132991 52.4490601161 -4.9757036896
579 2 0.8779088373 55.8894725082 -4.9757023097
580 2 0.8779093286 57.7165553750 -3.1682023488
581 2 0.8779093672 57.7165552361 0.4467976651
582 2 0.8779090177 50.2640342694 -4.9757021875
583 2 0.8779088937 -55.8983476134 -6.7832023741
584 2 -0.2897134820 52.4490602177 -1.3607036921
585 2 0.8779145865 54.0358310847 -3.1682023199
586 2 0.8779088517 55.8894725251 -1.3607022950
587 2 0.8779093304 57.7165553083 4.0617976637
588 2 0.8779158494 -57.7519889900 5.8692976291
589 2 -0.2897143851 44.9965384646 -3.1682034530
590 2 0.8779122170 46.5833101425 -4.9757020895
591 2 0.8779084389 48.4369514974 -3.1682021135
592 2 0.8779091351 50.2640341999 -1.3607021817
593 2 -0.2897134851 52.4490601791 2.2542963124
594 2 0.8779145830 54.0358310903 0.4467976762
595 2 0.8779088377 55.8894725213 2.2542976830
596 2 0.8779093671 57.7165553650 -6.7832023309
597 2 -0.2897148639 37.5440171345 -4.9757032703
598 2 0.8779081578 40.9844304307 -4.9757019069
599 2 0.8779088742 42.8115131535 -3.1682019452
600 2 0.8779088591 42.8115131549 0.4467980502
601 2 -0.2897143592 44.9965384390 0.4467965514
602 2 0.8779122195 46.5833101402 -1.3607020828
603 2 0.8779084304 48.4369515067 0.4467978786
604 2 0.8779090187 50.2640341878 2.2542978180
605 2 -0.2897133471 52.4490601733 5.8692963108
606 2 0.8779145863 54.0358310849 4.0617976885
607 2 0.8779088520 55.8894725201 5.8692976852
608 2 0.8779085006 35.3589918415 -4.9757017971
609 2 0.8779084499 35.3589919531 -1.3607018044
610 2 -0.2897146081 37.5440170296 -1.3607032687
611 2 0.8779121078 39.1307890157 -3.1682018680
612 2 0.8779081484 40.9844304225 -1.3607019071
613 2 0.8779088759 42.8115131504 4.0617980543
614 2 -0.2897143817 44.9965384645 4.0617965475
615 2 0.8779122166 46.5833101432 2.2542979127
616 2 0.8779084390 48.4369514992 4.0617978728
617 2 0.8779145825 54.0358310857 -6.7832023217
618 2 -0.2897126799 -59.3387592937 4.0617962091
619 2 -0.2897143306 30.0914957303 -3.1682032086
620 2 0.8779136631 31.6782675887 -4.9757017902
621 2 0.8779080001 33.5319091532 -3.1682017996
622 2 0.8779085026 35.3589918412 2.2542981968
623 2 -0.2897148697 37.5440171368 2.2542967274
624 2 0.8779121084 39.1307890145 0.4467981311
625 2 0.8779081579 40.9844304314 2.2542980927
626 2 0.8779084303 48.4369514971 -6.7832021236
627 2 0.8779122192 46.5833101393 5.8692979187
628 2 0.8779091361 50.2640342602 5.8692978244
629 2 -0.2897141143 22.6389739453 -4.9757032162
630 2 0.8779080524 26.0793874373 -4.9757018207
631 2 0.8779087274 27.9064702213 -3.1682019005
632 2 0.8779087619 27.9064702017 0.4467980940