LAMMPS data file via write_data, version 29 Aug 2024, timestep = 551, units = metal

29248 atoms
2 atom types

-100.1 100.1 xlo xhi
-59.6201706 59.6201706 ylo yhi
-7.23 7.23 zlo zhi
0 0 0 xy xz yz

Masses

1 63.55
2 63.55

Atoms # atomic

1 1 0.6675087007094902 58.070795312201106 -6.7794802497947275 0 0 0
2 1 0.28646884757013424 52.41290005841844 -6.779480328766381 0 0 0
3 1 1.3331909718297936 54.57284582060772 -6.779480321569322 0 0 0
4 1 0.9800978894844832 56.199500369033935 -4.9719803888353695 0 0 0
5 1 0.6675087007521654 58.070795312735264 -3.164480249785373 0 0 0
6 1 2.764477839332443 56.68510283346179 -6.779480524613034 0 0 0
7 1 2.359557609923442 58.44033218604314 -4.971980593220298 0 0 0
8 1 4.063593301014905 58.89771642451925 -6.779480580064865 0 0 0
9 1 0.9612489166545402 48.73916084783195 -6.7794806886219225 0 0 0
10 1 0.652526014289478 50.61175881825272 -4.9719804306183075 0 0 0
11 1 0.28646884659072214 52.412900060368905 -3.164480328769491 0 0 0
12 1 2.3428952553900757 50.97829117040546 -6.779480645564375 0 0 0
13 1 1.8820428419312663 52.84004809495733 -4.9719804202084195 0 0 0
14 1 1.3331909726065447 54.572845821456376 -3.16448032193207 0 0 0
15 1 0.9800978888389409 56.19950036863447 -1.356980389831426 0 0 0
16 1 0.6675087007158709 58.07079531220506 0.4505197502062992 0 0 0
17 1 3.5950823349654826 53.209276206942626 -6.779480587604538 0 0 0
18 1 3.1872184271358748 54.96277081930935 -4.971980591157129 0 0 0
19 1 2.764477840731743 56.68510283310254 -3.164480524858657 0 0 0
20 1 2.359557610502492 58.44033218553245 -1.3569805941161686 0 0 0
21 1 4.948427921600157 55.36741225012002 -6.7794807562089545 0 0 0
22 1 4.522204840888037 57.12640443462279 -4.971980709112133 0 0 0
23 1 4.063593301949339 58.89771642448522 -3.164480580969714 0 0 0
24 1 6.256971590405584 57.55617303976256 -6.779480794402995 0 0 0
25 1 5.8118605549242375 59.31966998165618 -4.971980680815051 0 0 0
26 1 0.6364960248794489 43.14088366509562 -6.779480933913168 0 0 0
27 1 0.27338231628473864 44.945923664207776 -4.971980991855734 0 0 0
28 1 1.865200079485831 45.36971188768599 -6.7794809899823045 0 0 0
29 1 1.3133200267103575 47.10888804249762 -4.971980846399493 0 0 0
30 1 0.9612489154624768 48.73916084853072 -3.164480693297046 0 0 0
31 1 0.6525260147317766 50.611758818746175 -1.3569804328030846 0 0 0
32 1 0.2864688476402648 52.4129000584416 0.4505196712329317 0 0 0
33 1 3.1654939149497494 47.493201834001574 -6.779481045270618 0 0 0
34 1 2.745336774581105 49.219479916493846 -4.971980898221304 0 0 0
35 1 2.342895255140945 50.978291170153305 -3.164480646059957 0 0 0
36 1 1.8820428423357072 52.84004809439329 -1.3569804200687492 0 0 0
37 1 1.3331909718244788 54.57284582058255 0.45051967843064 0 0 0
38 1 0.9800978894850658 56.19950036903496 2.258019611167167 0 0 0
39 1 0.6675087007499911 58.0707953127342 4.065519750222527 0 0 0
40 1 4.500893216470246 49.65643388489084 -6.779481054381984 0 0 0
41 1 4.044339222113322 51.432680996154794 -4.971980800514634 0 0 0
42 1 3.5950823345781373 53.20927620683843 -3.16448058733159 0 0 0
43 1 3.187218426518328 54.96277081930973 -1.356980590267977 0 0 0
44 1 2.7644778393343614 56.68510283346446 0.450519475388409 0 0 0
45 1 2.359557609918525 58.44033218604812 2.258019406779258 0 0 0
46 1 5.789382026989756 51.851349634642354 -6.779480819767137 0 0 0
47 1 5.362228164667471 53.609699890527644 -4.971980693134536 0 0 0
48 1 4.948427921962434 55.367412249138646 -3.1644807564148043 0 0 0
49 1 4.522204840805273 57.12640443402187 -1.3569807078761913 0 0 0
50 1 4.063593301015217 58.897716424518315 0.45051941993414707 0 0 0
51 1 7.121283737396979 54.024258964378525 -6.7794807898984715 0 0 0
52 1 6.695265140738002 55.787227125838406 -4.971980811032391 0 0 0
53 1 6.256971590776786 57.55617303895121 -3.164480794409004 0 0 0
54 1 5.811860553571748 59.319669981820276 -1.356980681592239 0 0 0
55 1 8.438771527863395 56.2100385378479 -6.779480850676383 0 0 0
56 1 8.003127331090411 57.97520075439372 -4.971980792462872 0 0 0
57 1 9.75590300373122 58.39288415485495 -6.779480679821975 0 0 0
58 1 0.2716291723984625 37.48002962172381 -6.779481163612433 0 0 0
59 1 1.2985970390180483 39.63769062716592 -6.779481443926112 0 0 0
60 1 0.9381611146573761 41.27244216166944 -4.9719813298346685 0 0 0
61 1 0.6364960341363854 43.14088366600421 -3.164480953878156 0 0 0
62 1 0.2733823487813396 44.945923685738244 -1.3569809936330006 0 0 0
63 1 2.72318721824999 41.73604848725949 -6.7794815697728374 0 0 0
64 1 2.324562244755583 43.50224736703222 -4.971981334679054 0 0 0
65 1 1.865200077661882 45.36971188117675 -3.164480977858363 0 0 0
66 1 1.3133200244452894 47.10888802735743 -1.3569808456708248 0 0 0
67 1 0.9612489167036102 48.739160847761816 0.4505193113708832 0 0 0
68 1 0.6525260143043141 50.61175881825401 2.2580195694008474 0 0 0
69 1 0.2864688465863878 52.412900060367 4.065519671219223 0 0 0
70 1 4.019996846720318 43.947046284809865 -6.779481407363007 0 0 0
71 1 3.5729675232228715 45.733559745777875 -4.971981136862798 0 0 0
72 1 3.1654939143567447 47.4932018364208 -3.1644810472251828 0 0 0
73 1 2.7453367769666244 49.2194799190486 -1.356980899117515 0 0 0
74 1 2.342895255392193 50.97829117042274 0.45051935443227453 0 0 0
75 1 1.882042841928353 52.840048094949175 2.258019579774675 0 0 0
76 1 1.33319097261041 54.572845821456944 4.065519678066077 0 0 0
77 1 0.9800978888389551 56.19950036862945 5.873019610168075 0 0 0
78 1 5.334451557478559 46.12593853166177 -6.779481195585532 0 0 0
79 1 4.92431599131902 47.89181315825967 -4.971981230059569 0 0 0
80 1 4.500893216142003 49.65643388465559 -3.164481054649782 0 0 0
81 1 4.044339221964677 51.43268099443373 -1.3569807990850642 0 0 0
82 1 3.595082334970286 53.20927620694085 0.4505194123962967 0 0 0
83 1 3.1872184271419 54.96277081931239 2.258019408842876 0 0 0
84 1 2.7644778407313026 56.68510283310261 4.065519475141591 0 0 0
85 1 2.3595576105050924 58.44033218552938 5.873019405883671 0 0 0
86 1 6.667125701027189 48.305673129165505 -6.77948122604327 0 0 0
87 1 6.232318747350519 50.08198851680367 -4.97198110818166 0 0 0
88 1 5.789382026982494 51.851349635650614 -3.164480819617099 0 0 0
89 1 5.362228164499257 53.609699890988445 -1.3569806930087585 0 0 0
90 1 4.948427921600427 55.367412250120005 0.4505192437893532 0 0 0
91 1 4.522204840888747 57.126404434622394 2.2580192908884356 0 0 0
92 1 4.063593301949609 58.89771642448462 4.065519419033435 0 0 0
93 1 7.974490724494828 50.49702094745711 -6.779481032841474 0 0 0
94 1 7.545456174300995 52.26338077686429 -4.971980851706748 0 0 0
95 1 7.121283736591536 54.02425896305221 -3.164480789690666 0 0 0
96 1 6.695265140941686 55.78722712622771 -1.3569808105461587 0 0 0
97 1 6.256971590403353 57.55617303976263 0.4505192055973037 0 0 0
98 1 5.811860554923626 59.31966998165594 2.2580193191865274 0 0 0
99 1 9.297983311104403 52.678509059190326 -6.779480854397002 0 0 0
100 1 8.871092063062491 54.4438095394275 -4.971980854920804 0 0 0
101 1 8.438771526967969 56.210038537274734 -3.1644808507664277 0 0 0
102 1 8.003127330691328 57.97520075473748 -1.3569807929272455 0 0 0
103 1 10.618113569936625 54.86446132567999 -6.779480921221261 0 0 0
104 1 10.186665569203242 56.63009418209486 -4.971980830042544 0 0 0
105 1 9.75590300324599 58.39288415383468 -3.1644806807226082 0 0 0
106 1 11.937527491886314 57.04978084581389 -6.779480808663205 0 0 0
107 1 11.508817552499679 58.812276255578304 -4.971980695871175 0 0 0
108 1 13.260666692962062 59.23360571746411 -6.779480817818395 0 0 0
109 1 0.791111165436206 33.60827025913115 -6.7794810787200745 0 0 0
110 1 0.6213028889103214 35.65109520191822 -4.971980865286879 0 0 0
111 1 0.2716291532332207 37.48002962234529 -3.164481163432084 0 0 0
112 1 2.259195315508279 35.91717997489612 -6.779481303362419 0 0 0
113 1 1.8472769909717357 37.86320143650624 -4.971981264988574 0 0 0
114 1 1.2985970462307108 39.63769062550838 -3.1644814418719993 0 0 0
115 1 0.9381611203242102 41.27244215132722 -1.3569813244417654 0 0 0
116 1 0.6364960247841367 43.1408836651976 0.45051906618038146 0 0 0
117 1 0.2733823157124675 44.945923663931175 2.2580190080961002 0 0 0
118 1 3.5227990755018226 38.185805140878436 -6.779481537828239 0 0 0
119 1 3.1316377242992246 39.98887054675338 -4.971981694869382 0 0 0
120 1 2.7231872218054036 41.7360484933506 -3.1644815697469615 0 0 0
121 1 2.3245622483429003 43.50224737092889 -1.356981340017741 0 0 0
122 1 1.865200079669549 45.36971188769753 0.4505190100532139 0 0 0
123 1 1.3133200267732406 47.10888804272758 2.2580191535747316 0 0 0
124 1 0.9612489154602315 48.739160848537644 4.065519306638296 0 0 0
125 1 0.6525260147212748 50.61175881874383 5.873019567209184 0 0 0
126 1 4.876298622898091 40.36476906453051 -6.779481878324787 0 0 0
127 1 4.4683960447457025 42.153905894899786 -4.971981660155094 0 0 0
128 1 4.019996844466974 43.947046283091886 -3.1644814071275142 0 0 0
129 1 3.5729675190524404 45.733559744317695 -1.3569811342963225 0 0 0
130 1 3.1654939149157 47.49320183398749 0.45051895473018233 0 0 0
131 1 2.745336774559391 49.219479916462525 2.258019101784171 0 0 0
132 1 2.3428952551406326 50.97829117015461 4.0655193539393535 0 0 0
133 1 1.8820428423429547 52.84004809440196 5.8730195799166856 0 0 0
134 1 6.18993429193786 42.5686016776016 -6.779481740113745 0 0 0
135 1 5.756259531817292 44.35481824606706 -4.971981404399879 0 0 0
136 1 5.334451558376443 46.125938534850114 -3.1644811958648176 0 0 0
137 1 4.924315990787846 47.89181315898319 -1.3569812320021903 0 0 0
138 1 4.500893216489786 49.6564338848949 0.4505189456156666 0 0 0
139 1 4.0443392221243215 51.43268099615866 2.2580191994879852 0 0 0
140 1 3.595082334579274 53.20927620683961 4.065519412675989 0 0 0
141 1 3.187218426515443 54.962770819307615 5.873019409732531 0 0 0
142 1 7.5054073343208785 44.76057783128014 -6.7794814378996895 0 0 0
143 1 7.087958159705906 46.53313202172176 -4.971981275536899 0 0 0
144 1 6.667125700944311 48.305673129426346 -3.1644812261075814 0 0 0
145 1 6.232318747019988 50.0819885161503 -1.3569811072122435 0 0 0
146 1 5.78938202698923 51.85134963464042 0.45051918023093745 0 0 0
147 1 5.362228164669759 53.60969989052693 2.2580193068670407 0 0 0
148 1 4.948427921963159 55.36741224913931 4.065519243586603 0 0 0
149 1 4.522204840802985 57.126404434024074 5.87301929212446 0 0 0
150 1 8.833403925764955 46.94905189569024 -6.779481304014694 0 0 0
151 1 8.406237322558368 48.724002678197444 -4.971981208064539 0 0 0
152 1 7.974490723989973 50.497020947362834 -3.1644810322484127 0 0 0
153 1 7.5454561743418225 52.26338077750642 -1.3569808505103522 0 0 0
154 1 7.12128373739516 54.02425896437749 0.45051921010054286 0 0 0
155 1 6.69526514073776 55.787227125839216 2.258019188969866 0 0 0
156 1 6.256971590775919 57.55617303895075 4.065519205592799 0 0 0
157 1 5.811860553573041 59.319669981819025 5.873019318410432 0 0 0
158 1 10.150574133242017 49.14219861307432 -6.779481177062178 0 0 0
159 1 9.723459144968473 50.911924263802184 -4.971980922283442 0 0 0
160 1 9.297983310395722 52.678509058126586 -3.1644808552066137 0 0 0
161 1 8.871092063524827 54.443809539604864 -1.3569808562235954 0 0 0
162 1 8.438771527860013 56.2100385378475 0.4505191493223365 0 0 0
163 1 8.00312733109034 57.97520075439507 2.258019207537179 0 0 0
164 1 11.47340642757382 51.33046622580488 -6.779481045997917 0 0 0
165 1 11.047073935007077 53.09758589974472 -4.971980913823289 0 0 0
166 1 10.618113570789035 54.864461325686015 -3.1644809214938268 0 0 0
167 1 10.18666556871672 56.630094182361496 -1.3569808306124838 0 0 0
168 1 9.755903003729443 58.39288415485549 0.4505193201791931 0 0 0
169 1 12.79570776421798 53.519304174142995 -6.779480977322207 0 0 0
170 1 12.366793598357631 55.28531609202869 -4.97198092252114 0 0 0
171 1 11.937527491858333 57.049780845896144 -3.1644808082537015 0 0 0
172 1 11.508817552837328 58.812276254743175 -1.3569806943427294 0 0 0
173 1 14.117440953151487 55.70742261837682 -6.7794810046422755 0 0 0
174 1 13.689176219960999 57.47097220524895 -4.971980868062255 0 0 0
175 1 13.260666692391595 59.23360571651494 -3.1644808175221493 0 0 0
176 1 15.441099370643798 57.89414331471104 -6.779480888796452 0 0 0
177 2 0.840726290903774 26.090496580563347 -4.971981019934508 0 0 0
178 2 -0.37392375603201344 30.040402834391493 -3.164480660770544 0 0 0
179 1 1.9547507961453476 30.18839030569975 -6.779481279953815 0 0 0
180 1 0.7693936681607738 31.711487134602272 -4.971981175038369 0 0 0
181 1 0.7911111878348152 33.60827024530065 -3.1644810761229896 0 0 0
182 1 0.6213028842957726 35.65109520156566 -1.356980851587202 0 0 0
183 1 0.2716291468525043 37.48002960219227 0.45051883643946605 0 0 0
184 1 2.9914082519987204 32.39494460788378 -6.779481401678466 0 0 0
185 1 2.5559880887024065 34.07604831449043 -4.971981328701061 0 0 0
186 1 2.2591953104127214 35.9171799772513 -3.1644813077347593 0 0 0
187 1 1.8472769962761504 37.86320144054101 -1.3569812776634167 0 0 0
188 1 1.2985970431218448 39.63769064038399 0.45051855595148527 0 0 0
189 1 0.9381611155197191 41.27244216026654 2.2580186684272623 0 0 0
190 1 0.6364960341634571 43.140883665995055 4.06551904666581 0 0 0
191 1 0.2733823495466794 44.94592368608931 5.8730190063279935 0 0 0
192 1 4.36626303329453 34.57261313135009 -6.779481601865602 0 0 0
193 1 3.9337580732740633 36.35653044844252 -4.971981482747113 0 0 0
194 1 3.5227990772855406 38.185805141360255 -3.16448153716903 0 0 0
195 1 3.131637721439816 39.98887054671048 -1.356981689791883 0 0 0
196 1 2.723187216639303 41.73604848528239 0.45051843026981914 0 0 0
197 1 2.3245622448404646 43.50224736718203 2.258018665407697 0 0 0
198 1 1.8652000776378799 45.36971188117037 4.0655190224012845 0 0 0
199 1 1.3133200243705545 47.10888802706432 5.873019154307549 0 0 0
200 1 5.681065069974537 36.798497789862544 -6.779481776792011 0 0 0
201 1 5.267936746289365 38.57423342894679 -4.97198186569418 0 0 0
202 1 4.8762986241944475 40.364769065993805 -3.1644818789230365 0 0 0
203 1 4.468396045677338 42.15390589542711 -1.3569816607962477 0 0 0
204 1 4.019996846909933 43.94704628515627 0.450518592622231 0 0 0
205 1 3.5729675232288116 45.73355974573081 2.2580188630650673 0 0 0
206 1 3.1654939143634806 47.4932018364267 4.065518952778174 0 0 0
207 1 2.745336776995117 49.21947991908646 5.873019100889535 0 0 0
208 1 7.025746498549566 38.99814585492444 -6.779481985759951 0 0 0
209 1 6.612771084420842 40.77633152339127 -4.9719819226202455 0 0 0
210 1 6.189934291258027 42.56860167642696 -3.1644817398386884 0 0 0
211 1 5.756259531079664 44.354818246127415 -1.356981402865405 0 0 0
212 1 5.334451557441682 46.12593853160893 0.4505188044171936 0 0 0
213 1 4.9243159913291095 47.891813158268754 2.2580187699478143 0 0 0
214 1 4.500893216139531 49.656433884654966 4.065518945357109 0 0 0
215 1 4.044339221956491 51.432680994428374 5.873019200918543 0 0 0
216 1 8.353416977893133 41.20456092221766 -6.779482009031978 0 0 0
217 1 7.927133890191513 42.98309239694114 -4.971981802760401 0 0 0
218 1 7.505407334891061 44.76057783228952 -3.1644814374984613 0 0 0
219 1 7.087958159706972 46.533132022716835 -1.356981275626871 0 0 0
220 1 6.667125701033058 48.305673129173805 0.4505187739549741 0 0 0
221 1 6.232318747348984 50.08198851679884 2.2580188918188693 0 0 0
222 1 5.789382026983688 51.85134963565137 4.06551918038784 0 0 0
223 1 5.3622281645000385 53.60969989098934 5.873019306995669 0 0 0
224 1 9.676293737997057 43.40449436885995 -6.779481706968397 0 0 0
225 1 9.254807789857054 45.17574536727931 -4.971981433990349 0 0 0
226 1 8.833403924737723 46.94905189469207 -3.164481303838029 0 0 0
227 1 8.406237322907543 48.724002678450425 -1.3569812077540764 0 0 0
228 1 7.974490724491716 50.4970209474565 0.45051896715803735 0 0 0
229 1 7.545456174301506 52.26338077686429 2.258019148293909 0 0 0
230 1 7.121283736591977 54.02425896305207 4.065519210310426 0 0 0
231 1 6.695265140941132 55.78722712622865 5.873019189456776 0 0 0
232 1 11.003921510250294 45.59948209975064 -6.7794814526095095 0 0 0
233 1 10.578094673786751 47.37031143559967 -4.97198135666794 0 0 0
234 1 10.150574134469679 49.1421986124674 -3.1644811767760395 0 0 0
235 1 9.72345914514122 50.911924264395275 -1.3569809243032107 0 0 0
236 1 9.297983311102115 52.67850905918953 0.4505191456038484 0 0 0
237 1 8.871092063060203 54.44380953942842 2.2580191450797282 0 0 0
238 1 8.43877152696713 56.21003853727702 4.065519149235249 0 0 0
239 1 8.00312733069184 57.975200754737266 5.873019207074168 0 0 0
240 1 12.326371920205844 47.794884804524166 -6.779481319303385 0 0 0
241 1 11.89934767898589 49.562846453259446 -4.971981179357224 0 0 0
242 1 11.47340642857786 51.33046622526694 -3.164481046336841 0 0 0
243 1 11.047073934832412 53.09758589971184 -1.3569809136605633 0 0 0
244 1 10.618113569932262 54.86446132567844 0.4505190787801377 0 0 0
245 1 10.186665569200287 56.63009418209537 2.258019169957658 0 0 0
246 1 9.755903003245479 58.39288415383481 4.0655193192779056 0 0 0
247 1 13.650309435362828 49.98715943526687 -6.779481194301078 0 0 0
248 1 13.223364374821102 51.75295317221357 -4.971981129589957 0 0 0
249 1 12.795707763757463 53.51930417432492 -3.164480977629011 0 0 0
250 1 12.366793598028693 55.285316091767946 -1.3569809215418764 0 0 0
251 1 11.937527491883827 57.049780845813665 0.45051919133749047 0 0 0
252 1 11.508817552498996 58.81227625557772 2.2580193041292134 0 0 0
253 1 14.974203892895943 52.178480166018765 -6.779481113897445 0 0 0
254 1 14.545846669968682 53.943025192983136 -4.971981083930249 0 0 0
255 1 14.117440953568902 55.70742261689434 -3.1644810043147396 0 0 0
256 1 13.689176220593012 57.47097220535782 -1.356980868930059 0 0 0
257 1 13.260666692962715 59.233605717464734 0.45051918218078846 0 0 0
258 1 16.29773254728663 54.368763425312885 -6.779481028237196 0 0 0
259 1 15.869360743169281 56.1315230701881 -4.971980998970088 0 0 0
260 1 15.441099370736751 57.89414331505497 -3.164480888509019 0 0 0
261 1 17.622233958813098 56.557681590943155 -6.779480952304245 0 0 0
262 1 17.193656313778845 58.31913728300105 -4.971980932822513 0 0 0
263 1 18.947175654361956 58.74574120966536 -6.779480907684414 0 0 0
264 2 -0.34038408564781264 22.605180281666016 -4.971980512117333 0 0 0
265 2 0.9519775859346424 -26.08893686943359 -6.7794807367943974 0 0 1
266 2 0.8239900265896267 27.920142586043248 -3.1644809457599306 0 0 0
267 2 0.840726290590851 26.09049658222525 -1.3569810008264602 0 0 0
268 2 -0.3739239876087197 30.040402927311867 0.4505193408609794 0 0 0
269 1 2.717989452062639 26.488181307552487 -6.77948154442619 0 0 0
270 1 2.3390941012759896 28.393352514321442 -4.971981236924226 0 0 0
271 1 1.954750577015247 30.188390269322163 -3.164481279994664 0 0 0
272 1 0.7693936700815129 31.711487134620576 -1.356981186813139 0 0 0
273 1 0.7911111658673065 33.608270259647774 0.4505189212550227 0 0 0
274 1 0.6213028850195883 35.6510952017207 2.2580191274709973 0 0 0
275 1 0.2716291568407456 37.48002962510096 4.065518836933521 0 0 0
276 1 4.028487198962679 28.79777600598846 -6.779481417016237 0 0 0
277 1 3.5423673170730297 30.661695214034076 -4.971981470862606 0 0 0
278 1 2.991408246365353 32.394944676693136 -3.1644814021443612 0 0 0
279 1 2.5559880920859683 34.07604831393095 -1.3569813541982707 0 0 0
280 1 2.2591953162177987 35.917179973535674 0.45051869702567593 0 0 0
281 1 1.847276994808169 37.8632014376327 2.2580187417030406 0 0 0
282 1 1.2985970456496432 39.63769062364238 4.0655185572748875 0 0 0
283 1 0.9381611191840307 41.272442153185516 5.873018674254642 0 0 0
284 1 5.248872750741285 31.072968202765132 -6.77948159139692 0 0 0
285 1 4.8012700374863755 32.841194116974755 -4.971981620113124 0 0 0
286 1 4.366263018595703 34.57261312437176 -3.16448160413424 0 0 0
287 1 3.9337580722367846 36.35653044833048 -1.356981487537333 0 0 0
288 1 3.522799075911351 38.18580514080028 0.45051846182101296 0 0 0
289 1 3.131637723317212 39.98887054610187 2.258018304819434 0 0 0
290 1 2.723187222031612 41.73604849363223 4.065518430537664 0 0 0
291 1 2.3245622482123167 43.50224737072826 5.873018660046565 0 0 0
292 1 6.565125188696513 33.272612924067424 -6.7794818461982524 0 0 0
293 1 6.123694737973111 35.035830127843774 -4.971981890032128 0 0 0
294 1 5.681065074565339 36.79849779108107 -3.16448177564687 0 0 0
295 1 5.267936745044977 38.57423342798213 -1.3569818628558274 0 0 0
296 1 4.876298623162953 40.36476906453853 0.4505181217091906 0 0 0
297 1 4.468396045023269 42.15390589509716 2.2580183400175238 0 0 0
298 1 4.019996844444194 43.947046283045715 4.065518592779855 0 0 0
299 1 3.5729675190479497 45.73355974438095 5.873018865652888 0 0 0
300 1 7.879493034356102 35.47577144598508 -6.779482058680088 0 0 0
301 1 7.4463505258101605 37.235258190151306 -4.971981964899317 0 0 0
302 1 7.025746496061629 38.99814585544667 -3.1644819845874452 0 0 0
303 1 6.612771084130301 40.776331523269924 -1.3569819240262222 0 0 0
304 1 6.189934291877776 42.56860167756506 0.45051825987298333 0 0 0
305 1 5.756259531765039 44.35481824601563 2.2580185955938727 0 0 0
306 1 5.334451558381403 46.125938534858626 4.065518804160609 0 0 0
307 1 4.9243159907747724 47.89181315897061 5.873018768006722 0 0 0
308 1 9.208108977624448 37.67113939533052 -6.779482086522366 0 0 0
309 1 8.780573056775808 39.43338630946885 -4.9719820885764685 0 0 0
310 1 8.353416978630676 41.204560921811826 -3.164482008315968 0 0 0
311 1 7.927133889676739 42.983092397478366 -1.3569818031458378 0 0 0
312 1 7.50540733434093 44.76057783129257 0.4505185621014519 0 0 0
313 1 7.087958159717772 46.533132021730644 2.2580187244672913 0 0 0
314 1 6.667125700943885 48.305673129426474 4.065518773890133 0 0 0
315 1 6.232318747022475 50.08198851615423 5.8730188927899825 0 0 0
316 1 10.53360533661045 39.870323595423734 -6.779482050129581 0 0 0
317 1 10.102753971652618 41.63573657442395 -4.971981954480488 0 0 0
318 1 9.67629373909952 43.404494369195625 -3.1644817070403204 0 0 0
319 1 9.254807789777189 45.175745367822664 -1.3569814342852664 0 0 0
320 1 8.833403925760024 46.94905189568595 0.4505186959833878 0 0 0
321 1 8.406237322558212 48.724002678193706 2.258018791937257 0 0 0
322 1 7.974490723990527 50.49702094736272 4.065518967755575 0 0 0
323 1 7.545456174342121 52.26338077750571 5.873019149494696 0 0 0
324 1 11.857004583953454 42.06823390090259 -6.779481843430673 0 0 0
325 1 11.429241093064945 43.83213335007897 -4.971981678724263 0 0 0
326 1 11.003921511660224 45.59948209881744 -3.1644814526607203 0 0 0
327 1 10.578094674031334 47.3703114355553 -1.3569813574734477 0 0 0
328 1 10.15057413324071 49.142198613074974 0.4505188229386423 0 0 0
329 1 9.723459144968828 50.911924263801744 2.2580190777177953 0 0 0
330 1 9.297983310395594 52.67850905812738 4.065519144794723 0 0 0
331 1 8.871092063525182 54.44380953960677 5.8730191437763954 0 0 0
332 1 13.182949824622625 44.26366971451326 -6.779481604705492 0 0 0
333 1 12.754345205724206 46.027978958746694 -4.971981444529748 0 0 0
334 1 12.32637192164222 47.79488480376504 -3.164481319456478 0 0 0
335 1 11.89934767886922 49.56284645339718 -1.356981179072312 0 0 0
336 1 11.473406427571746 51.33046622580283 0.4505189540021686 0 0 0
337 1 11.04707393500621 53.097585899743585 2.258019086176323 0 0 0
338 1 10.61811357078733 54.864461325686584 4.065519078504975 0 0 0
339 1 10.186665568717544 56.63009418236131 5.873019169387638 0 0 0
340 1 14.506924703667607 46.45884746145472 -6.779481432713554 0 0 0
341 1 14.077900544754826 48.222327410668264 -4.971981377236721 0 0 0
342 1 13.650309435613039 49.98715943414356 -3.164481194600958 0 0 0
343 1 13.22336437451635 51.752953171806006 -1.3569811298778016 0 0 0
344 1 12.795707764214683 53.519304174141475 0.45051902267699623 0 0 0
345 1 12.366793598354093 55.285316092029284 2.2580190774784503 0 0 0
346 1 11.937527491857864 57.04978084589626 4.065519191745409 0 0 0
347 1 11.508817552838579 58.8122762547417 5.8730193056555775 0 0 0
348 1 15.831305409054309 48.65223157089694 -6.779481258644008 0 0 0
349 1 15.402505782046163 50.41469270593857 -4.971981137580607 0 0 0
350 1 14.974203892656845 52.17848016616389 -3.1644811137034883 0 0 0
351 1 14.545846669441005 53.943025192295245 -1.3569810835882445 0 0 0
352 1 14.117440953151842 55.70742261837594 0.4505189953599955 0 0 0
353 1 13.689176219959549 57.47097220524909 2.258019131936646 0 0 0
354 1 13.260666692392618 59.23360571651494 4.065519182475207 0 0 0
355 1 17.15583223937267 50.84451826607138 -6.779481079258358 0 0 0
356 1 16.726526644813703 52.60624810060158 -4.971981074814479 0 0 0
357 1 16.297732547578576 54.36876342577559 -3.1644810275782795 0 0 0
358 1 15.869360743019584 56.13152306979577 -1.3569809989152548 0 0 0
359 1 15.441099370646398 57.894143314711265 0.45051911120400134 0 0 0
360 1 18.480271546631514 53.03579328538182 -6.779481097888875 0 0 0
361 1 18.050989924007325 54.79646997391115 -4.971981004640642 0 0 0
362 1 17.622233958892892 56.55768159179339 -3.164480952131312 0 0 0
363 1 17.193656314073706 58.31913728288969 -1.3569809333086735 0 0 0
364 1 19.80530549310238 55.22588762836421 -6.77948103458794 0 0 0
365 1 19.376056442652455 56.98562129067742 -4.971981008067675 0 0 0
366 1 18.947175654594005 58.74574120986457 -3.1644809079648213 0 0 0
367 1 21.13083464230718 57.41503360297988 -6.779481027847102 0 0 0
368 1 20.701698014302863 59.17380792719022 -4.9719809670264095 0 0 0
369 2 0.8468827948888134 20.46174214359055 -4.971981081150795 0 0 0
370 2 0.857874420092557 18.63397502705373 -3.1644811697429422 0 0 0
371 2 -0.340384087914714 22.605180285522955 -1.3569805097302725 0 0 0
372 1 2.3751463974456613 20.90131474799943 -6.779481349864706 0 0 0
373 1 1.9932886399949865 22.693877482702256 -4.971981523733464 0 0 0
374 2 0.7934855008821984 24.23326846579446 -3.1644810066056697 0 0 0
375 2 0.8239902465928424 27.920142471542867 0.45051904623233685 0 0 0
376 2 0.8407262909496751 26.090496580644405 2.258018979918231 0 0 0
377 2 -0.3739237556478372 30.040402834171708 4.065519339092439 0 0 0
378 1 3.6003514936335392 23.149121905415363 -6.7794816600586545 0 0 0
379 1 3.073147344549767 24.859376686642925 -4.971981648553318 0 0 0
380 1 2.7179895657247073 26.48818121140146 -3.164481542794022 0 0 0
381 1 2.3390940958472157 28.393352511519062 -1.3569811338787408 0 0 0
382 1 1.9547507986239196 30.18839030614462 0.45051872005631977 0 0 0
383 1 0.7693936680976066 31.71148713470705 2.2580188250391475 0 0 0
384 1 0.7911111877761527 33.60827024523538 4.065518923710233 0 0 0
385 1 0.6213028894763681 35.65109520182627 5.873019142954718 0 0 0
386 1 4.914135121664245 25.30028178893655 -6.779481787177472 0 0 0
387 1 4.460231678126462 27.03682832812317 -4.971981710680164 0 0 0
388 1 4.02848726775143 28.7977759691802 -3.164481419188789 0 0 0
389 1 3.542367317962743 30.661695216949887 -1.3569813733276226 0 0 0
390 1 2.991408251873608 32.39494460760485 0.45051859831364266 0 0 0
391 1 2.5559880891569833 34.0760483139938 2.2580186709571204 0 0 0
392 1 2.259195310314439 35.917179977444256 4.065518695001525 0 0 0
393 1 1.8472769911734446 37.863201439043614 5.873018727373014 0 0 0
394 1 6.202568569218826 27.51628865180684 -6.779481826750258 0 0 0
395 1 5.720860110369017 29.293830960360772 -4.971981553357934 0 0 0
396 1 5.248872774764976 31.072968200931108 -3.1644815909101336 0 0 0
397 1 4.801270036819645 32.84119411666264 -1.3569816242715527 0 0 0
398 1 4.366263032953796 34.57261313149797 0.4505183981487643 0 0 0
399 1 3.9337580731010746 36.35653044881003 2.2580185170059064 0 0 0
400 1 3.52279907722604 38.1858051413735 4.065518460346875 0 0 0
401 1 3.131637722741516 39.98887054757467 5.87301830997459 0 0 0
402 1 7.458077158482425 29.750074836242582 -6.7794818095923715 0 0 0
403 1 7.002503039756803 31.512446269615175 -4.971981859946358 0 0 0
404 1 6.565125188558952 33.27261292012448 -3.164481845739058 0 0 0
405 1 6.12369473670347 35.03583012802232 -1.3569818884675804 0 0 0
406 1 5.681065069940573 36.798497789876556 0.4505182232102597 0 0 0
407 1 5.267936746179387 38.57423342884368 2.2580181344819654 0 0 0
408 1 4.876298624155794 40.364769065996036 4.065518121320198 0 0 0
409 1 4.468396045312488 42.15390589515882 5.873018339334092 0 0 0
410 1 8.761473368229773 31.954723730482492 -6.779482015415178 0 0 0
411 1 8.319393021112134 33.714486194502605 -4.971982034687524 0 0 0
412 1 7.879493038701142 35.47577144678909 -3.164482058088002 0 0 0
413 1 7.446350526791534 37.2352581894749 -1.3569819643278151 0 0 0
414 1 7.025746498567969 38.998145854959766 0.45051801424292626 0 0 0
415 1 6.612771084402667 40.77633152342252 2.25801807733263 0 0 0
416 1 6.189934291268187 42.568601676434476 4.065518260064294 0 0 0
417 1 5.756259531150249 44.35481824619395 5.873018597128641 0 0 0
418 1 10.076185349383366 34.155011168931146 -6.7794821322900445 0 0 0
419 1 9.639250110329215 35.91281319210727 -4.971982086486589 0 0 0
420 1 9.208108975725239 37.67113939473921 -3.164482086996428 0 0 0
421 1 8.780573057598929 39.433386309357125 -1.356982089197497 0 0 0
422 1 8.353416977895648 41.20456092220817 0.45051799096745515 0 0 0
423 1 7.927133890196558 42.98309239693872 2.258018197256115 0 0 0
424 1 7.50540733488738 44.76057783228878 4.065518562518522 0 0 0
425 1 7.087958159690231 46.53313202270237 5.873018724378453 0 0 0
426 1 11.398901476351384 36.35075825769321 -6.779482135166734 0 0 0
427 1 10.965778425005496 38.10883910398562 -4.971982059816086 0 0 0
428 1 10.533605337258251 39.87032359357905 -3.1644820513019227 0 0 0
429 1 10.10275397176349 41.635736573835906 -1.3569819545063209 0 0 0
430 1 9.676293737996929 43.40449436886387 0.4505182930310526 0 0 0
431 1 9.254807789856542 45.17574536728096 2.258018566010069 0 0 0
432 1 8.83340392473768 46.949051894693746 4.065518696162565 0 0 0
433 1 8.406237322910457 48.7240026784523 5.873018792248523 0 0 0
434 1 12.722077146582564 38.54717140428999 -6.779482072827246 0 0 0
435 1 12.288320315607578 40.30672528445577 -4.9719819661968945 0 0 0
436 1 11.857004584186484 42.06823389966291 -3.164481843224977 0 0 0
437 1 11.429241092677174 43.83213334979178 -1.3569816792518936 0 0 0
438 1 11.003921510248745 45.59948209974916 0.45051854739140923 0 0 0
439 1 10.578094673788797 47.370311435598516 2.2580186433323566 0 0 0
440 1 10.15057413447066 49.14219861246655 4.065518823224537 0 0 0