#LAMMPS data file
29248 atoms
2 atom types
-125.2250000000 125.2250000000 xlo xhi
-59.6201706000 59.6201706000 ylo yhi
-7.2300000000 7.2300000000 zlo zhi
0.0 0.0 0.0 xy xz yz

Atoms # atomic

1 1 0.669668 58.050444 -6.780477
2 1 0.286958 52.389236 -6.780475
3 1 1.324464 54.551487 -6.780476
4 1 0.971680 56.181565 -4.972976
5 1 0.669668 58.050444 -3.165477
6 1 2.760329 56.654755 -6.780476
7 1 2.360216 58.412670 -4.972976
8 1 4.062195 58.862768 -6.780476
9 1 0.945701 48.718195 -6.780474
10 1 0.648198 50.583468 -4.972975
11 1 0.286957 52.389236 -3.165475
12 1 2.336531 50.942071 -6.780474
13 1 1.878050 52.809760 -4.972975
14 1 1.324464 54.551487 -3.165476
15 1 0.971680 56.181565 -1.357976
16 1 0.669668 58.050444 0.449523
17 1 3.585172 53.170421 -6.780475
18 1 3.177613 54.930090 -4.972975
19 1 2.760329 56.654755 -3.165476
20 1 2.360216 58.412670 -1.357976
21 1 4.938906 55.323449 -6.780475
22 1 4.517461 57.087128 -4.972975
23 1 4.062195 58.862768 -3.165476
24 1 6.250121 57.508473 -6.780475
25 1 5.808220 59.277124 -4.972975
26 2 0.628851 43.098050 -6.780474
27 1 0.280597 44.927792 -4.972974
28 1 1.856350 45.306868 -6.780474
29 1 1.307532 47.083792 -4.972974
30 1 0.945701 48.718195 -3.165474
31 1 0.648198 50.583468 -1.357975
32 1 0.286958 52.389236 0.449525
33 1 3.140363 47.430030 -6.780474
34 1 2.733939 49.176614 -4.972974
35 1 2.336531 50.942071 -3.165474
36 1 1.878050 52.809760 -1.357975
37 1 1.324464 54.551487 0.449524
38 1 0.971680 56.181565 2.257024
39 1 0.669668 58.050444 4.064523
40 1 4.479762 49.590460 -6.780474
41 1 4.032227 51.383579 -4.972974
42 1 3.585172 53.170421 -3.165475
43 1 3.177613 54.930090 -1.357975
44 1 2.760329 56.654755 0.449524
45 1 2.360216 58.412670 2.257024
46 1 5.768716 51.787775 -6.780474
47 1 5.347508 53.558626 -4.972975
48 1 4.938906 55.323449 -3.165475
49 1 4.517461 57.087128 -1.357975
50 1 4.062195 58.862768 0.449524
51 1 7.102645 53.961464 -6.780474
52 1 6.683438 55.733054 -4.972975
53 1 6.250121 57.508473 -3.165475
54 1 5.808220 59.277124 -1.357975
55 1 8.424114 56.147389 -6.780475
56 1 7.993863 57.919371 -4.972975
57 1 9.745016 58.330013 -6.780474
58 2 -0.369007 37.498391 -4.972974
59 2 0.777759 39.163200 -6.780473
60 2 0.795049 41.058327 -4.972974
61 2 0.628851 43.098050 -3.165474
62 1 0.280597 44.927792 -1.357974
63 1 2.561364 41.519087 -6.780473
64 1 2.266512 43.360417 -4.972974
65 1 1.856350 45.306868 -3.165474
66 1 1.307532 47.083792 -1.357974
67 1 0.945701 48.718195 0.449526
68 1 0.648198 50.583468 2.257025
69 1 0.286957 52.389236 4.064525
70 1 3.941211 43.796025 -6.780473
71 1 3.531222 45.626151 -4.972974
72 1 3.140363 47.430030 -3.165474
73 1 2.733939 49.176614 -1.357974
74 1 2.336531 50.942071 0.449526
75 1 1.878050 52.809760 2.257025
76 1 1.324464 54.551487 4.064524
77 1 0.971680 56.181565 5.872024
78 1 5.276359 46.010839 -6.780473
79 1 4.886104 47.801327 -4.972974
80 1 4.479762 49.590460 -3.165474
81 1 4.032227 51.383579 -1.357974
82 1 3.585172 53.170421 0.449525
83 1 3.177613 54.930090 2.257025
84 1 2.760329 56.654755 4.064524
85 1 2.360216 58.412670 5.872024
86 1 6.623259 48.209138 -6.780473
87 1 6.201641 50.001422 -4.972973
88 1 5.768716 51.787775 -3.165474
89 1 5.347508 53.558626 -1.357975
90 1 4.938906 55.323449 0.449525
91 1 4.517461 57.087128 2.257025
92 1 4.062195 58.862768 4.064524
93 1 7.939385 50.412342 -6.780473
94 1 7.518727 52.189575 -4.972973
95 1 7.102645 53.961464 -3.165474
96 1 6.683438 55.733054 -1.357975
97 1 6.250121 57.508473 0.449525
98 1 5.808220 59.277124 2.257025
99 1 9.269457 52.600845 -6.780473
100 1 8.849663 54.373367 -4.972974
101 1 8.424114 56.147389 -3.165475
102 1 7.993863 57.919371 -1.357975
103 1 10.595976 54.790831 -6.780474
104 1 10.170228 56.561652 -4.972974
105 1 9.745016 58.330013 -3.165474
106 1 11.921143 56.978387 -6.780474
107 1 11.497574 58.744359 -4.972974
108 1 13.250369 59.162824 -6.780474
109 2 0.841229 33.543270 -6.780471
110 2 0.826612 35.372705 -4.972972
111 2 -0.369007 37.498390 -1.357974
112 1 2.344085 35.837049 -6.780471
113 1 1.960446 37.632858 -4.972971
114 2 0.777759 39.163200 -3.165473
115 2 0.795049 41.058327 -1.357974
116 2 0.628851 43.098050 0.449526
117 1 0.280596 44.927792 2.257026
118 1 3.547536 38.103558 -6.780471
119 1 2.994905 39.838294 -4.972972
120 1 2.561364 41.519087 -3.165473
121 1 2.266512 43.360417 -1.357974
122 1 1.856350 45.306868 0.449526
123 1 1.307532 47.083792 2.257026
124 1 0.945701 48.718195 4.064526
125 1 0.648198 50.583468 5.872025
126 1 4.806178 40.280567 -6.780472
127 1 4.372256 42.011948 -4.972972
128 1 3.941211 43.796025 -3.165473
129 1 3.531222 45.626151 -1.357974
130 1 3.140363 47.430030 0.449526
131 1 2.733939 49.176614 2.257026
132 1 2.336531 50.942071 4.064526
133 1 1.878050 52.809760 5.872025
134 1 6.130330 42.471887 -6.780472
135 1 5.688612 44.234811 -4.972973
136 1 5.276359 46.010839 -3.165473
137 1 4.886104 47.801327 -1.357974
138 1 4.479762 49.590460 0.449526
139 1 4.032227 51.383579 2.257026
140 1 3.585172 53.170421 4.064525
141 1 3.177613 54.930090 5.872025
142 1 7.454371 44.668227 -6.780472
143 1 7.034900 46.431061 -4.972973
144 1 6.623259 48.209138 -3.165473
145 1 6.201641 50.001422 -1.357973
146 1 5.768716 51.787775 0.449526
147 1 5.347508 53.558626 2.257025
148 1 4.938906 55.323449 4.064525
149 1 4.517461 57.087128 5.872025
150 1 8.790516 46.862889 -6.780473
151 1 8.364571 48.633922 -4.972973
152 1 7.939385 50.412342 -3.165473
153 1 7.518727 52.189575 -1.357973
154 1 7.102645 53.961464 0.449526
155 1 6.683438 55.733054 2.257025
156 1 6.250121 57.508473 4.064525
157 1 5.808220 59.277124 5.872025
158 1 10.114733 49.061742 -6.780472
159 1 9.689522 50.830155 -4.972973
160 1 9.269457 52.600845 -3.165473
161 1 8.849663 54.373367 -1.357974
162 1 8.424114 56.147389 0.449525
163 1 7.993863 57.919371 2.257025
164 1 11.443760 51.254265 -6.780473
165 1 11.020070 53.020892 -4.972973
166 1 10.595976 54.790831 -3.165474
167 1 10.170228 56.561652 -1.357974
168 1 9.745016 58.330013 0.449526
169 1 12.772130 53.445847 -6.780474
170 1 12.346079 55.211719 -4.972974
171 1 11.921143 56.978387 -3.165474
172 1 11.497574 58.744359 -1.357974
173 1 14.099681 55.635546 -6.780474
174 1 13.674539 57.398880 -4.972974
175 1 13.250369 59.162824 -3.165474
176 1 15.429355 57.822736 -6.780474
177 2 0.846715 27.914172 -6.780470
178 2 -0.337690 30.063704 -3.165472
179 1 1.996286 30.138737 -6.780468
180 2 0.801783 31.686411 -4.972971
181 2 0.841229 33.543270 -3.165472
182 2 0.826612 35.372705 -1.357972
183 2 -0.369007 37.498391 2.257026
184 1 3.072542 32.304161 -6.780469
185 1 2.717814 33.933239 -4.972970
186 1 2.344085 35.837049 -3.165471
187 1 1.960446 37.632858 -1.357971
188 2 0.777759 39.163200 0.449527
189 2 0.795049 41.058327 2.257026
190 2 0.628851 43.098050 4.064526
191 1 0.280597 44.927792 5.872026
192 1 4.462596 34.477164 -6.780470
193 1 4.032713 36.238636 -4.972971
194 1 3.547536 38.103558 -3.165471
195 1 2.994905 39.838294 -1.357972
196 1 2.561364 41.519087 0.449527
197 1 2.266512 43.360417 2.257026
198 1 1.856350 45.306868 4.064526
199 1 1.307532 47.083792 5.872026
200 1 5.724769 36.731804 -6.780471
201 1 5.253198 38.511890 -4.972971
202 1 4.806178 40.280567 -3.165472
203 1 4.372256 42.011948 -1.357972
204 1 3.941211 43.796025 0.449527
205 1 3.531222 45.626151 2.257026
206 1 3.140363 47.430030 4.064526
207 1 2.733939 49.176614 5.872026
208 1 7.007013 38.948041 -6.780471
209 1 6.570655 40.708509 -4.972972
210 1 6.130330 42.471887 -3.165472
211 1 5.688612 44.234811 -1.357973
212 1 5.276359 46.010839 0.449527
213 1 4.886104 47.801327 2.257026
214 1 4.479762 49.590460 4.064526
215 1 4.032227 51.383579 5.872026
216 1 8.325412 41.147096 -6.780471
217 1 7.886553 42.908605 -4.972972
218 1 7.454371 44.668227 -3.165472
219 1 7.034900 46.431061 -1.357973
220 1 6.623259 48.209138 0.449527
221 1 6.201641 50.001422 2.257027
222 1 5.768716 51.787775 4.064526
223 1 5.347508 53.558626 5.872025
224 1 9.646841 43.342410 -6.780472
225 1 9.216838 45.100752 -4.972972
226 1 8.790516 46.862889 -3.165473
227 1 8.364571 48.633922 -1.357973
228 1 7.939385 50.412342 0.449527
229 1 7.518727 52.189575 2.257027
230 1 7.102645 53.961464 4.064526
231 1 6.683438 55.733054 5.872025
232 1 10.975279 45.535200 -6.780472
233 1 10.544359 47.296546 -4.972972
234 1 10.114733 49.061742 -3.165473
235 1 9.689522 50.830155 -1.357973
236 1 9.269457 52.600845 0.449527
237 1 8.849663 54.373367 2.257026
238 1 8.424114 56.147389 4.064525
239 1 7.993863 57.919371 5.872025
240 1 12.299989 47.729721 -6.780472
241 1 11.870046 49.490891 -4.972972
242 1 11.443760 51.254265 -3.165473
243 1 11.020070 53.020892 -1.357973
244 1 10.595976 54.790831 0.449526
245 1 10.170228 56.561652 2.257026
246 1 9.745016 58.330013 4.064526
247 1 13.627066 49.921625 -6.780473
248 1 13.198930 51.682373 -4.972973
249 1 12.772130 53.445847 -3.165474
250 1 12.346079 55.211719 -1.357974
251 1 11.921143 56.978387 0.449526
252 1 11.497574 58.744359 2.257026
253 1 14.954875 52.112560 -6.780473
254 1 14.526511 53.873262 -4.972974
255 1 14.099681 55.635546 -3.165474
256 1 13.674539 57.398880 -1.357974
257 1 13.250369 59.162824 0.449526
258 1 16.282812 54.302283 -6.780474
259 1 15.855359 56.061928 -4.972975
260 1 15.429355 57.822736 -3.165474
261 1 17.612241 56.490306 -6.780475
262 1 17.185408 58.249051 -4.972975
263 1 18.942613 58.677148 -6.780475
264 2 -0.320783 22.620616 -4.972969
265 2 0.826845 24.232022 -6.780468
266 2 0.855615 26.086591 -4.972969
267 2 0.846715 27.914172 -3.165470
268 2 -0.337690 30.063704 0.449528
269 1 2.734805 26.458146 -6.780468
270 1 2.377052 28.345573 -4.972969
271 1 1.996286 30.138737 -3.165468
272 2 0.801783 31.686411 -1.357971
273 2 0.841229 33.543270 0.449529
274 2 0.826612 35.372705 2.257028
275 2 -0.369007 37.498390 5.872026
276 1 4.072547 28.743115 -6.780468
277 1 3.602049 30.592083 -4.972968
278 1 3.072542 32.304161 -3.165469
279 1 2.717814 33.933239 -1.357970
280 1 2.344085 35.837049 0.449529
281 1 1.960446 37.632858 2.257029
282 2 0.777759 39.163200 4.064527
283 2 0.795049 41.058327 5.872026
284 1 5.325827 30.992171 -6.780468
285 1 4.914399 32.741209 -4.972969
286 1 4.462596 34.477164 -3.165470
287 1 4.032713 36.238636 -1.357971
288 1 3.547536 38.103558 0.449529
289 1 2.994905 39.838294 2.257028
290 1 2.561364 41.519087 4.064527
291 1 2.266512 43.360417 5.872026
292 1 6.655339 33.190209 -6.780469
293 1 6.205461 34.953692 -4.972970
294 1 5.724769 36.731804 -3.165471
295 1 5.253198 38.511890 -1.357971
296 1 4.806178 40.280567 0.449528
297 1 4.372256 42.011948 2.257028
298 1 3.941211 43.796025 4.064527
299 1 3.531222 45.626151 5.872026
300 1 7.929267 35.416782 -6.780470
301 1 7.461820 37.185162 -4.972970
302 1 7.007013 38.948041 -3.165471
303 1 6.570655 40.708509 -1.357972
304 1 6.130330 42.471887 0.449528
305 1 5.688612 44.234811 2.257027
306 1 5.276359 46.010839 4.064527
307 1 4.886104 47.801327 5.872026
308 1 9.212654 37.628363 -6.780470
309 1 8.766407 39.387079 -4.972971
310 1 8.325412 41.147096 -3.165471
311 1 7.886553 42.908605 -1.357972
312 1 7.454371 44.668227 0.449528
313 1 7.034900 46.431061 2.257027
314 1 6.623259 48.209138 4.064527
315 1 6.201641 50.001422 5.872027
316 1 10.523282 39.826510 -6.780471
317 1 10.082683 41.584455 -4.972971
318 1 9.646841 43.342410 -3.165471
319 1 9.216838 45.100752 -1.357972
320 1 8.790516 46.862889 0.449527
321 1 8.364571 48.633922 2.257027
322 1 7.939385 50.412342 4.064527
323 1 7.518727 52.189575 5.872027
324 1 11.841959 42.020750 -6.780471
325 1 11.407157 43.777158 -4.972971
326 1 10.975279 45.535200 -3.165472
327 1 10.544359 47.296546 -1.357972
328 1 10.114733 49.061742 0.449528
329 1 9.689522 50.830155 2.257027
330 1 9.269457 52.600845 4.064527
331 1 8.849663 54.373367 5.872026
332 1 13.166104 44.212925 -6.780471
333 1 12.732405 45.970362 -4.972972
334 1 12.299989 47.729721 -3.165472
335 1 11.870046 49.490891 -1.357972
336 1 11.443760 51.254265 0.449527
337 1 11.020070 53.020892 2.257027
338 1 10.595976 54.790831 4.064526
339 1 10.170228 56.561652 5.872026
340 1 14.490026 46.405381 -6.780472
341 1 14.057397 48.162861 -4.972972
342 1 13.627066 49.921625 -3.165473
343 1 13.198930 51.682373 -1.357973
344 1 12.772130 53.445847 0.449526
345 1 12.346079 55.211719 2.257026
346 1 11.921143 56.978387 4.064526
347 1 11.497574 58.744359 5.872026
348 1 15.815592 48.596439 -6.780473
349 1 15.384520 50.353697 -4.972973
350 1 14.954875 52.112560 -3.165473
351 1 14.526511 53.873262 -1.357974
352 1 14.099681 55.635546 0.449526
353 1 13.674539 57.398880 2.257026
354 1 13.250369 59.162824 4.064526
355 1 17.142345 50.786600 -6.780473
356 1 16.711875 52.543834 -4.972974
357 1 16.282812 54.302283 -3.165474
358 1 15.855359 56.061928 -1.357975
359 1 15.429355 57.822736 0.449526
360 1 18.469817 52.975856 -6.780474
361 1 18.040326 54.732592 -4.972974
362 1 17.612241 56.490306 -3.165475
363 1 17.185408 58.249051 -1.357975
364 1 19.798587 55.163942 -6.780474
365 1 19.369994 56.920144 -4.972975
366 1 18.942613 58.677148 -3.165475
367 1 21.128435 57.351089 -6.780475
368 1 20.700705 59.106667 -4.972975
369 2 0.865175 18.633137 -6.780465
370 2 0.858423 20.460507 -4.972967
371 2 -0.320783 22.620616 -1.357969
372 1 2.392996 20.879463 -6.780465
373 1 2.013971 22.672361 -4.972966
374 2 0.826845 24.232022 -3.165468
375 2 0.855615 26.086591 -1.357969
376 2 0.846715 27.914172 0.449530
377 2 -0.337690 30.063704 4.064528
378 1 3.620683 23.121613 -6.780466
379 1 3.089355 24.833809 -4.972967
380 1 2.734805 26.458146 -3.165468
381 1 2.377052 28.345573 -1.357969
382 1 1.996286 30.138737 0.449532
383 2 0.801783 31.686411 2.257029
384 2 0.841229 33.543270 4.064528
385 2 0.826612 35.372705 5.872028
386 1 4.937433 25.262981 -6.780466
387 1 4.494722 26.989622 -4.972967
388 1 4.072547 28.743115 -3.165468
389 1 3.602049 30.592083 -1.357968
390 1 3.072542 32.304161 0.449531
391 1 2.717814 33.933239 2.257030
392 1 2.344085 35.837049 4.064529
393 1 1.960446 37.632858 5.872029
394 1 6.247126 27.460928 -6.780467
395 1 5.778802 29.227478 -4.972968
396 1 5.325827 30.992171 -3.165468
397 1 4.914399 32.741209 -1.357969
398 1 4.462596 34.477164 0.449530
399 1 4.032713 36.238636 2.257029
400 1 3.547536 38.103558 4.064529
401 1 2.994905 39.838294 5.872028
402 1 7.527006 29.677762 -6.780468
403 1 7.089233 31.430023 -4.972968
404 1 6.655339 33.190209 -3.165469
405 1 6.205461 34.953692 -1.357970
406 1 5.724769 36.731804 0.449529
407 1 5.253198 38.511890 2.257029
408 1 4.806178 40.280567 4.064528
409 1 4.372256 42.011948 5.872028
410 1 8.837950 31.881745 -6.780468
411 1 8.390161 33.645118 -4.972969
412 1 7.929267 35.416782 -3.165470
413 1 7.461820 37.185162 -1.357970
414 1 7.007013 38.948041 0.449529
415 1 6.570655 40.708509 2.257028
416 1 6.130330 42.471887 4.064528
417 1 5.688612 44.234811 5.872027
418 1 10.125092 34.099258 -6.780469
419 1 9.667128 35.865360 -4.972969
420 1 9.212654 37.628363 -3.165470
421 1 8.766407 39.387079 -1.357971
422 1 8.325412 41.147096 0.449529
423 1 7.886553 42.908605 2.257028
424 1 7.454371 44.668227 4.064528
425 1 7.034900 46.431061 5.872027
426 1 11.414928 36.308808 -6.780469
427 1 10.967058 38.068300 -4.972970
428 1 10.523282 39.826510 -3.165471
429 1 10.082683 41.584455 -1.357971
430 1 9.646841 43.342410 0.449528
431 1 9.216838 45.100752 2.257028
432 1 8.790516 46.862889 4.064527
433 1 8.364571 48.633922 5.872027
434 1 12.722433 38.507506 -6.780470
435 1 12.280572 40.264403 -4.972971
436 1 11.841959 42.020750 -3.165471
437 1 11.407157 43.777158 -1.357971
438 1 10.975279 45.535200 0.449528
439 1 10.544359 47.296546 2.257028
440 1 10.114733 49.061742 4.064527
441 1 9.689522 50.830155 5.872027
442 1 14.038738 40.701568 -6.780470
443 1 13.601270 42.456985 -4.972971
444 1 13.166104 44.212925 -3.165471
445 1 12.732405 45.970362 -1.357972
446 1 12.299989 47.729721 0.449528
447 1 11.870046 49.490891 2.257028
448 1 11.443760 51.254265 4.064527
449 1 11.020070 53.020892 5.872027
450 1 15.360023 42.893486 -6.780471
451 1 14.924374 44.648960 -4.972972
452 1 14.490026 46.405381 -3.165472
453 1 14.057397 48.162861 -1.357972
454 1 13.627066 49.921625 0.449527
455 1 13.198930 51.682373 2.257027
456 1 12.772130 53.445847 4.064526
457 1 12.346079 55.211719 5.872026
458 1 16.682740 45.084903 -6.780472
459 1 16.248348 46.840298 -4.972972
460 1 15.815592 48.596439 -3.165473
461 1 15.384520 50.353697 -1.357973
462 1 14.954875 52.112560 0.449527
463 1 14.526511 53.873262 2.257026
464 1 14.099681 55.635546 4.064526
465 1 13.674539 57.398880 5.872026
466 1 18.007060 47.275328 -6.780472
467 1 17.574062 49.030507 -4.972973
468 1 17.142345 50.786600 -3.165473
469 1 16.711875 52.543834 -1.357974
470 1 16.282812 54.302283 0.449526
471 1 15.855359 56.061928 2.257025
472 1 15.429355 57.822736 4.064526
473 1 19.332754 49.464933 -6.780473
474 1 18.900675 51.219999 -4.972974
475 1 18.469817 52.975856 -3.165474
476 1 18.040326 54.732592 -1.357974
477 1 17.612241 56.490306 0.449525
478 1 17.185408 58.249051 2.257025
479 1 20.659486 51.653775 -6.780474
480 1 20.228418 53.408519 -4.972974
481 1 19.798587 55.163942 -3.165474
482 1 19.369994 56.920144 -1.357975
483 1 18.942613 58.677148 0.449525
484 1 21.987454 53.841745 -6.780475
485 1 21.557368 55.596119 -4.972975
486 1 21.128435 57.351089 -3.165475
487 1 20.700705 59.106667 -1.357975
488 1 23.316522 56.028985 -6.780476
489 1 22.887355 57.782961 -4.972976
490 1 24.646518 58.215676 -6.780476
491 2 0.867203 13.007484 -6.780464
492 2 -0.309604 15.172560 -3.165466
493 1 2.025370 15.213677 -6.780463
494 2 0.841940 16.779030 -4.972965
495 2 0.865175 18.633137 -3.165465
496 2 0.858423 20.460507 -1.357967
497 2 -0.320783 22.620616 2.257031
498 1 3.099451 17.373895 -6.780464
499 1 2.744608 18.996847 -4.972965
500 1 2.392996 20.879463 -3.165465
501 1 2.013971 22.672361 -1.357966
502 2 0.826845 24.232022 0.449532
503 2 0.855615 26.086591 2.257031
504 2 0.846715 27.914172 4.064530
505 2 -0.337690 30.063704 -6.780472
506 1 4.509706 19.523239 -6.780464
507 1 4.089662 21.274579 -4.972965
508 1 3.620683 23.121613 -3.165466
509 1 3.089355 24.833809 -1.357967
510 1 2.734805 26.458146 0.449532
511 1 2.377052 28.345573 2.257031
512 1 1.996286 30.138737 4.064532
513 2 0.801783 31.686411 5.872029
514 1 5.798313 21.756199 -6.780465
515 1 5.346540 23.518312 -4.972966
516 1 4.937433 25.262981 -3.165466
517 1 4.494722 26.989622 -1.357967
518 1 4.072547 28.743115 0.449532
519 1 3.602049 30.592083 2.257032
520 1 3.072542 32.304161 4.064531
521 1 2.717814 33.933239 5.872030
522 1 7.115518 23.951811 -6.780466
523 1 6.688125 25.705249 -4.972966
524 1 6.247126 27.460928 -3.165467
525 1 5.778802 29.227478 -1.357968
526 1 5.325827 30.992171 0.449532
527 1 4.914399 32.741209 2.257031
528 1 4.462596 34.477164 4.064530
529 1 4.032713 36.238636 5.872029
530 1 8.431250 26.156364 -6.780466
531 1 7.980724 27.919613 -4.972967
532 1 7.527006 29.677762 -3.165468
533 1 7.089233 31.430023 -1.357968
534 1 6.655339 33.190209 0.449531
535 1 6.205461 34.953692 2.257030
536 1 5.724769 36.731804 4.064529
537 1 5.253198 38.511890 5.872029
538 1 9.724933 28.367723 -6.780467
539 1 9.280608 30.124543 -4.972967
540 1 8.837950 31.881745 -3.165468
541 1 8.390161 33.645118 -1.357969
542 1 7.929267 35.416782 0.449530
543 1 7.461820 37.185162 2.257030
544 1 7.007013 38.948041 4.064529
545 1 6.570655 40.708509 5.872028
546 1 11.027915 30.573348 -6.780467
547 1 10.579646 32.334353 -4.972968
548 1 10.125092 34.099258 -3.165469
549 1 9.667128 35.865360 -1.357969
550 1 9.212654 37.628363 0.449530
551 1 8.766407 39.387079 2.257029
552 1 8.325412 41.147096 4.064529
553 1 7.886553 42.908605 5.872028
554 1 12.320857 32.784417 -6.780468
555 1 11.867255 34.547155 -4.972969
556 1 11.414928 36.308808 -3.165469
557 1 10.967058 38.068300 -1.357970
558 1 10.523282 39.826510 0.449529
559 1 10.082683 41.584455 2.257029
560 1 9.646841 43.342410 4.064529
561 1 9.216838 45.100752 5.872028
562 1 13.615314 34.990990 -6.780469
563 1 13.167273 36.749841 -4.972969
564 1 12.722433 38.507506 -3.165470
565 1 12.280572 40.264403 -1.357971
566 1 11.841959 42.020750 0.449529
567 1 11.407157 43.777158 2.257029
568 1 10.975279 45.535200 4.064528
569 1 10.544359 47.296546 5.872028
570 1 14.921683 37.189647 -6.780470
571 1 14.478904 38.945905 -4.972970
572 1 14.038738 40.701568 -3.165470
573 1 13.601270 42.456985 -1.357971
574 1 13.166104 44.212925 0.449529
575 1 12.732405 45.970362 2.257028
576 1 12.299989 47.729721 4.064528
577 1 11.870046 49.490891 5.872028
578 1 16.236225 39.383791 -6.780470
579 1 15.797163 41.138603 -4.972970
580 1 15.360023 42.893486 -3.165471
581 1 14.924374 44.648960 -1.357972
582 1 14.490026 46.405381 0.449528
583 1 14.057397 48.162861 2.257028
584 1 13.627066 49.921625 4.064527
585 1 13.198930 51.682373 5.872027
586 1 17.555530 41.575683 -6.780471
587 1 17.118503 43.330079 -4.972971
588 1 16.682740 45.084903 -3.165472
589 1 16.248348 46.840298 -1.357972
590 1 15.815592 48.596439 0.449527
591 1 15.384520 50.353697 2.257027
592 1 14.954875 52.112560 4.064527
593 1 14.526511 53.873262 5.872026
594 1 18.877047 43.766627 -6.780471
595 1 18.441405 45.520771 -4.972972
596 1 18.007060 47.275328 -3.165472
597 1 17.574062 49.030507 -1.357973
598 1 17.142345 50.786600 0.449527
599 1 16.711875 52.543834 2.257026
600 1 16.282812 54.302283 4.064526
601 1 15.855359 56.061928 5.872025
602 1 20.200296 45.956666 -6.780472
603 1 19.765960 47.710544 -4.972973
604 1 19.332754 49.464933 -3.165473
605 1 18.900675 51.219999 -1.357974
606 1 18.469817 52.975856 0.449526
607 1 18.040326 54.732592 2.257026
608 1 17.612241 56.490306 4.064525
609 1 17.185408 58.249051 5.872025
610 1 21.525019 48.145928 -6.780473
611 1 21.091718 49.899607 -4.972974
612 1 20.659486 51.653775 -3.165474
613 1 20.228418 53.408519 -1.357974
614 1 19.798587 55.163942 0.449526
615 1 19.369994 56.920144 2.257025
616 1 18.942613 58.677148 4.064525
617 1 22.850947 50.334495 -6.780474
618 1 22.418661 52.087899 -4.972975
619 1 21.987454 53.841745 -3.165475
620 1 21.557368 55.596119 -1.357975
621 1 21.128435 57.351089 0.449525
622 1 20.700705 59.106667 2.257025
623 1 24.178083 52.522361 -6.780476
624 1 23.746782 54.275468 -4.972976
625 1 23.316522 56.028985 -3.165476
626 1 22.887355 57.782961 -1.357976
627 1 25.506292 54.709649 -6.780476
628 1 25.075899 56.462473 -4.972976
629 1 24.646518 58.215676 -3.165476
630 1 26.835337 56.896560 -6.780477
631 1 26.405706 58.649188 -4.972977
632 1 28.164739 59.083458 -6.780477
633 2 -0.301042 7.722038 -4.972964
634 2 0.852210 9.326274 -6.780463
635 2 0.873001 11.180198 -4.972964
636 2 0.867203 13.007484 -3.165464
637 2 -0.309604 15.172560 0.449534
638 1 2.752520 11.540340 -6.780462
639 1 2.403627 13.420853 -4.972963
640 1 2.025370 15.213677 -3.165463
641 2 0.841940 16.779030 -1.357965
642 2 0.865175 18.633137 0.449535
643 2 0.858423 20.460507 2.257033
644 2 -0.320783 22.620616 5.872031
645 1 4.100706 13.814825 -6.780463
646 1 3.632130 15.661265 -4.972963
647 1 3.099451 17.373895 -3.165464
648 1 2.744608 18.996847 -1.357965
649 1 2.392996 20.879463 0.449535
650 1 2.013971 22.672361 2.257034
651 2 0.826845 24.232022 4.064532
652 2 0.855615 26.086591 5.872031
653 1 5.358458 16.056471 -6.780463
654 1 4.949633 17.799706 -4.972964
655 1 4.509706 19.523239 -3.165464
656 1 4.089662 21.274579 -1.357965
657 1 3.620683 23.121613 0.449534
658 1 3.089355 24.833809 2.257033
659 1 2.734805 26.458146 4.064532
660 1 2.377052 28.345573 5.872031
661 1 6.703756 18.239067 -6.780464
662 1 6.264893 19.992304 -4.972964
663 1 5.798313 21.756199 -3.165465
664 1 5.346540 23.518312 -1.357966
665 1 4.937433 25.262981 0.449534
666 1 4.494722 26.989622 2.257033
667 1 4.072547 28.743115 4.064532
668 1 3.602049 30.592083 5.872032
669 1 8.001414 20.448871 -6.780464
670 1 7.549960 22.203941 -4.972965
671 1 7.115518 23.951811 -3.165466
672 1 6.688125 25.705249 -1.357966
673 1 6.247126 27.460928 0.449533
674 1 5.778802 29.227478 2.257032
675 1 5.325827 30.992171 4.064532
676 1 4.914399 32.741209 5.872031
677 1 9.308507 22.647844 -6.780465
678 1 8.871369 24.399686 -4.972966
679 1 8.431250 26.156364 -3.165466
680 1 7.980724 27.919613 -1.357967
681 1 7.527006 29.677762 0.449532
682 1 7.089233 31.430023 2.257032
683 1 6.655339 33.190209 4.064531
684 1 6.205461 34.953692 5.872030
685 1 10.619421 24.849952 -6.780466
686 1 10.173060 26.608547 -4.972966
687 1 9.724933 28.367723 -3.165467
688 1 9.280608 30.124543 -1.357967
689 1 8.837950 31.881745 0.449532
690 1 8.390161 33.645118 2.257031
691 1 7.929267 35.416782 4.064530
692 1 7.461820 37.185162 5.872030
693 1 11.918839 27.057260 -6.780466
694 1 11.473082 28.814967 -4.972967
695 1 11.027915 30.573348 -3.165467
696 1 10.579646 32.334353 -1.357968
697 1 10.125092 34.099258 0.449531
698 1 9.667128 35.865360 2.257031
699 1 9.212654 37.628363 4.064530
700 1 8.766407 39.387079 5.872029
701 1 13.219971 29.262831 -6.780467
702 1 12.772060 31.022567 -4.972967
703 1 12.320857 32.784417 -3.165468
704 1 11.867255 34.547155 -1.357969
705 1 11.414928 36.308808 0.449531
706 1 10.967058 38.068300 2.257030
707 1 10.523282 39.826510 4.064529
708 1 10.082683 41.584455 5.872029
709 1 14.516560 31.470258 -6.780468
710 1 14.065768 33.230839 -4.972968
711 1 13.615314 34.990990 -3.165469
712 1 13.167273 36.749841 -1.357969
713 1 12.722433 38.507506 0.449530
714 1 12.280572 40.264403 2.257029
715 1 11.841959 42.020750 4.064529
716 1 11.407157 43.777158 5.872029
717 1 15.814507 33.674501 -6.780468
718 1 15.366967 35.432563 -4.972969
719 1 14.921683 37.189647 -3.165470
720 1 14.478904 38.945905 -1.357970
721 1 14.038738 40.701568 0.449530
722 1 13.601270 42.456985 2.257029
723 1 13.166104 44.212925 4.064529
724 1 12.732405 45.970362 5.872028
725 1 17.120757 35.872853 -6.780469
726 1 16.677429 37.628624 -4.972970
727 1 16.236225 39.383791 -3.165470
728 1 15.797163 41.138603 -1.357970
729 1 15.360023 42.893486 0.449529
730 1 14.924374 44.648960 2.257028
731 1 14.490026 46.405381 4.064528
732 1 14.057397 48.162861 5.872028
733 1 18.434083 38.067096 -6.780470
734 1 17.993980 39.821461 -4.972970
735 1 17.555530 41.575683 -3.165471
736 1 17.118503 43.330079 -1.357971
737 1 16.682740 45.084903 0.449528
738 1 16.248348 46.840298 2.257028
739 1 15.815592 48.596439 4.064527
740 1 15.384520 50.353697 5.872027
741 1 19.751938 40.259046 -6.780471
742 1 19.313892 42.012763 -4.972971
743 1 18.877047 43.766627 -3.165471
744 1 18.441405 45.520771 -1.357972
745 1 18.007060 47.275328 0.449528
746 1 17.574062 49.030507 2.257027
747 1 17.142345 50.786600 4.064527
748 1 16.711875 52.543834 5.872026
749 1 21.072370 42.449795 -6.780472
750 1 20.635774 44.203128 -4.972972
751 1 20.200296 45.956666 -3.165472
752 1 19.765960 47.710544 -1.357973
753 1 19.332754 49.464933 0.449527
754 1 18.900675 51.219999 2.257026
755 1 18.469817 52.975856 4.064526
756 1 18.040326 54.732592 5.872026
757 1 22.394669 44.639628 -6.780472
758 1 21.959338 46.392639 -4.972973
759 1 21.525019 48.145928 -3.165473
760 1 21.091718 49.899607 -1.357974
761 1 20.659486 51.653775 0.449526
762 1 20.228418 53.408519 2.257026
763 1 19.798587 55.163942 4.064526
764 1 19.369994 56.920144 5.872025
765 1 23.718509 46.828697 -6.780474
766 1 23.284248 48.581451 -4.972974
767 1 22.850947 50.334495 -3.165474
768 1 22.418661 52.087899 -1.357975
769 1 21.987454 53.841745 0.449525
770 1 21.557368 55.596119 2.257025
771 1 21.128435 57.351089 4.064525
772 1 20.700705 59.106667 5.872025
773 1 25.043638 49.017110 -6.780475
774 1 24.610383 50.769597 -4.972975
775 1 24.178083 52.522361 -3.165476
776 1 23.746782 54.275468 -1.357976
777 1 23.316522 56.028985 0.449524
778 1 22.887355 57.782961 2.257024
779 1 26.369957 51.204925 -6.780476
780 1 25.937659 52.957151 -4.972976
781 1 25.506292 54.709649 -3.165476
782 1 25.075899 56.462473 -1.357976
783 1 24.646518 58.215676 0.449524
784 1 27.697303 53.392269 -6.780476
785 1 27.265873 55.144275 -4.972977
786 1 26.835337 56.896560 -3.165477
787 1 26.405706 58.649188 -1.357977
788 1 29.025408 55.579349 -6.780477
789 1 28.594684 57.331236 -4.972977
790 1 28.164739 59.083458 -3.165477
791 1 30.353814 57.766489 -6.780477
792 2 0.880145 3.727480 -6.780462
793 2 0.874667 5.554735 -4.972962
794 2 -0.301042 7.722038 -1.357964
795 1 2.411953 5.965728 -6.780462
796 1 2.034021 7.758443 -4.972962
797 2 0.852210 9.326274 -3.165463
798 2 0.873001 11.180198 -1.357964
799 2 0.867203 13.007484 0.449536
800 2 -0.309604 15.172560 4.064534
801 1 3.640883 8.205306 -6.780462
802 1 3.107581 9.918056 -4.972962
803 1 2.752520 11.540340 -3.165462
804 1 2.403627 13.420853 -1.357963
805 1 2.025370 15.213677 0.449537
806 2 0.841940 16.779030 2.257035
807 2 0.865175 18.633137 4.064535
808 2 0.858423 20.460507 5.872033
809 1 4.958739 10.342378 -6.780462
810 1 4.519935 12.064447 -4.972963
811 1 4.100706 13.814825 -3.165463
812 1 3.632130 15.661265 -1.357963
813 1 3.099451 17.373895 0.449536
814 1 2.744608 18.996847 2.257035
815 1 2.392996 20.879463 4.064535
816 1 2.013971 22.672361 5.872034
817 1 6.276336 12.532526 -6.780463
818 1 5.810196 14.295275 -4.972963
819 1 5.358458 16.056471 -3.165463
820 1 4.949633 17.799706 -1.357964
821 1 4.509706 19.523239 0.449536
822 1 4.089662 21.274579 2.257035
823 1 3.620683 23.121613 4.064534
824 1 3.089355 24.833809 5.872033
825 1 7.563151 14.741921 -6.780463
826 1 7.129425 16.488069 -4.972963
827 1 6.703756 18.239067 -3.165464
828 1 6.264893 19.992304 -1.357964
829 1 5.798313 21.756199 0.449535
830 1 5.346540 23.518312 2.257034
831 1 4.937433 25.262981 4.064534
832 1 4.494722 26.989622 5.872033
833 1 8.888048 16.934181 -6.780463
834 1 8.449832 18.688352 -4.972964
835 1 8.001414 20.448871 -3.165464
836 1 7.549960 22.203941 -1.357965
837 1 7.115518 23.951811 0.449534
838 1 6.688125 25.705249 2.257034
839 1 6.247126 27.460928 4.064533
840 1 5.778802 29.227478 5.872032
841 1 10.194715 19.138969 -6.780464
842 1 9.749215 20.895010 -4.972964
843 1 9.308507 22.647844 -3.165465
844 1 8.871369 24.399686 -1.357966
845 1 8.431250 26.156364 0.449534
846 1 7.980724 27.919613 2.257033
847 1 7.527006 29.677762 4.064532
848 1 7.089233 31.430023 5.872032
849 1 11.501621 21.340390 -6.780465
850 1 11.061260 23.094324 -4.972965
851 1 10.619421 24.849952 -3.165466
852 1 10.173060 26.608547 -1.357966
853 1 9.724933 28.367723 0.449533
854 1 9.280608 30.124543 2.257033