# LAMMPS data file Sigma = 17, inclination = 0.000000
#LAMMPS data file
29248 atoms
2 atom types
-100.1000000000 100.1000000000 xlo xhi
-59.6201706000 59.6201706000 ylo yhi
-7.2300000000 7.2300000000 zlo zhi
0.0 0.0 0.0 xy xz yz

Atoms # atomic

1 1 0.4383815949 57.8665747891 -5.4225000000
2 1 -0.0000013949 52.1675939281 -5.4225000000
3 1 1.3151479732 54.3595096746 -5.4225000000
4 1 0.8767647841 56.1130422319 -3.6150000000
5 1 0.4383815949 57.8665747891 -1.8075000000
6 1 2.6302973413 56.5514254210 -5.4225000000
7 1 2.1919141522 58.3049579783 -3.6150000000
8 1 3.9454467095 58.7433411674 -5.4225000000
9 1 0.8767649833 48.6605288135 -5.4225000000
10 1 0.4383817942 50.4140613708 -3.6150000000
11 1 -0.0000013949 52.1675939281 -1.8075000000
12 1 2.1919143515 50.8524445600 -5.4225000000
13 1 1.7535311623 52.6059771173 -3.6150000000
14 1 1.3151479732 54.3595096746 -1.8075000000
15 1 0.8767647841 56.1130422319 0.0000000000
16 1 0.4383815949 57.8665747891 1.8075000000
17 1 3.5070637196 53.0443603064 -5.4225000000
18 1 3.0686805305 54.7978928637 -3.6150000000
19 1 2.6302973413 56.5514254210 -1.8075000000
20 1 2.1919141522 58.3049579783 0.0000000000
21 1 4.8222130878 55.2362760528 -5.4225000000
22 1 4.3838298986 56.9898086101 -3.6150000000
23 1 3.9454467095 58.7433411674 -1.8075000000
24 1 6.1373624559 57.4281917993 -5.4225000000
25 1 5.6989792668 59.1817243566 -3.6150000000
26 1 0.4383819935 42.9615479525 -5.4225000000
27 1 -0.0000011957 44.7150805098 -3.6150000000
28 1 1.7535313616 45.1534636990 -5.4225000000
29 1 1.3151481725 46.9069962563 -3.6150000000
30 1 0.8767649833 48.6605288135 -1.8075000000
31 1 0.4383817942 50.4140613708 0.0000000000
32 1 -0.0000013949 52.1675939281 1.8075000000
33 1 3.0686807298 47.3453794454 -5.4225000000
34 1 2.6302975406 49.0989120027 -3.6150000000
35 1 2.1919143515 50.8524445600 -1.8075000000
36 1 1.7535311623 52.6059771173 0.0000000000
37 1 1.3151479732 54.3595096746 1.8075000000
38 1 0.8767647841 56.1130422319 3.6150000000
39 1 0.4383815949 57.8665747891 5.4225000000
40 1 4.3838300979 49.5372951918 -5.4225000000
41 1 3.9454469088 51.2908277491 -3.6150000000
42 1 3.5070637196 53.0443603064 -1.8075000000
43 1 3.0686805305 54.7978928637 0.0000000000
44 1 2.6302973413 56.5514254210 1.8075000000
45 1 2.1919141522 58.3049579783 3.6150000000
46 1 5.6989794661 51.7292109383 -5.4225000000
47 1 5.2605962769 53.4827434956 -3.6150000000
48 1 4.8222130878 55.2362760528 -1.8075000000
49 1 4.3838298986 56.9898086101 0.0000000000
50 1 3.9454467095 58.7433411674 1.8075000000
51 1 7.0141288342 53.9211266847 -5.4225000000
52 1 6.5757456451 55.6746592420 -3.6150000000
53 1 6.1373624559 57.4281917993 -1.8075000000
54 1 5.6989792668 59.1817243566 0.0000000000
55 1 8.3292782024 56.1130424311 -5.4225000000
56 1 7.8908950132 57.8665749884 -3.6150000000
57 1 9.6444275705 58.3049581776 -5.4225000000
58 1 -0.0000009964 37.2625670915 -5.4225000000
59 1 1.3151483718 39.4544828380 -5.4225000000
60 1 0.8767651826 41.2080153952 -3.6150000000
61 1 0.4383819935 42.9615479525 -1.8075000000
62 1 -0.0000011957 44.7150805098 0.0000000000
63 1 2.6302977399 41.6463985844 -5.4225000000
64 1 2.1919145508 43.3999311417 -3.6150000000
65 1 1.7535313616 45.1534636990 -1.8075000000
66 1 1.3151481725 46.9069962563 0.0000000000
67 1 0.8767649833 48.6605288135 1.8075000000
68 1 0.4383817942 50.4140613708 3.6150000000
69 1 -0.0000013949 52.1675939281 5.4225000000
70 1 3.9454471081 43.8383143308 -5.4225000000
71 1 3.5070639189 45.5918468881 -3.6150000000
72 1 3.0686807298 47.3453794454 -1.8075000000
73 1 2.6302975406 49.0989120027 0.0000000000
74 1 2.1919143515 50.8524445600 1.8075000000
75 1 1.7535311623 52.6059771173 3.6150000000
76 1 1.3151479732 54.3595096746 5.4225000000
77 1 0.8767647841 56.1130422319 7.2300000000
78 1 5.2605964762 46.0302300772 -5.4225000000
79 1 4.8222132871 47.7837626345 -3.6150000000
80 1 4.3838300979 49.5372951918 -1.8075000000
81 1 3.9454469088 51.2908277491 0.0000000000
82 1 3.5070637196 53.0443603064 1.8075000000
83 1 3.0686805305 54.7978928637 3.6150000000
84 1 2.6302973413 56.5514254210 5.4225000000
85 1 2.1919141522 58.3049579783 7.2300000000
86 1 6.5757458444 48.2221458237 -5.4225000000
87 1 6.1373626552 49.9756783810 -3.6150000000
88 1 5.6989794661 51.7292109383 -1.8075000000
89 1 5.2605962769 53.4827434956 0.0000000000
90 1 4.8222130878 55.2362760528 1.8075000000
91 1 4.3838298986 56.9898086101 3.6150000000
92 1 3.9454467095 58.7433411674 5.4225000000
93 1 7.8908952125 50.4140615701 -5.4225000000
94 1 7.4525120234 52.1675941274 -3.6150000000
95 1 7.0141288342 53.9211266847 -1.8075000000
96 1 6.5757456451 55.6746592420 0.0000000000
97 1 6.1373624559 57.4281917993 1.8075000000
98 1 5.6989792668 59.1817243566 3.6150000000
99 1 9.2060445806 52.6059773165 -5.4225000000
100 1 8.7676613915 54.3595098738 -3.6150000000
101 1 8.3292782024 56.1130424311 -1.8075000000
102 1 7.8908950132 57.8665749884 0.0000000000
103 1 10.5211939488 54.7978930630 -5.4225000000
104 1 10.0828107597 56.5514256203 -3.6150000000
105 1 9.6444275705 58.3049581776 -1.8075000000
106 1 11.8363433169 56.9898088094 -5.4225000000
107 1 11.3979601278 58.7433413667 -3.6150000000
108 1 13.1514926851 59.1817245558 -5.4225000000
109 1 0.8767653819 33.7555019769 -5.4225000000
110 1 0.4383821928 35.5090345342 -3.6150000000
111 1 -0.0000009964 37.2625670915 -1.8075000000
112 1 2.1919147500 35.9474177234 -5.4225000000
113 1 1.7535315609 37.7009502807 -3.6150000000
114 1 1.3151483718 39.4544828380 -1.8075000000
115 1 0.8767651826 41.2080153952 0.0000000000
116 1 0.4383819935 42.9615479525 1.8075000000
117 1 -0.0000011957 44.7150805098 3.6150000000
118 1 3.5070641182 38.1393334698 -5.4225000000
119 1 3.0686809290 39.8928660271 -3.6150000000
120 1 2.6302977399 41.6463985844 -1.8075000000
121 1 2.1919145508 43.3999311417 0.0000000000
122 1 1.7535313616 45.1534636990 1.8075000000
123 1 1.3151481725 46.9069962563 3.6150000000
124 1 0.8767649833 48.6605288135 5.4225000000
125 1 0.4383817942 50.4140613708 7.2300000000
126 1 4.8222134863 40.3312492162 -5.4225000000
127 1 4.3838302972 42.0847817735 -3.6150000000
128 1 3.9454471081 43.8383143308 -1.8075000000
129 1 3.5070639189 45.5918468881 0.0000000000
130 1 3.0686807298 47.3453794454 1.8075000000
131 1 2.6302975406 49.0989120027 3.6150000000
132 1 2.1919143515 50.8524445600 5.4225000000
133 1 1.7535311623 52.6059771173 7.2300000000
134 1 6.1373628545 42.5231649627 -5.4225000000
135 1 5.6989796653 44.2766975200 -3.6150000000
136 1 5.2605964762 46.0302300772 -1.8075000000
137 1 4.8222132871 47.7837626345 0.0000000000
138 1 4.3838300979 49.5372951918 1.8075000000
139 1 3.9454469088 51.2908277491 3.6150000000
140 1 3.5070637196 53.0443603064 5.4225000000
141 1 3.0686805305 54.7978928637 7.2300000000
142 1 7.4525122226 44.7150807091 -5.4225000000
143 1 7.0141290335 46.4686132664 -3.6150000000
144 1 6.5757458444 48.2221458237 -1.8075000000
145 1 6.1373626552 49.9756783810 0.0000000000
146 1 5.6989794661 51.7292109383 1.8075000000
147 1 5.2605962769 53.4827434956 3.6150000000
148 1 4.8222130878 55.2362760528 5.4225000000
149 1 4.3838298986 56.9898086101 7.2300000000
150 1 8.7676615908 46.9069964555 -5.4225000000
151 1 8.3292784016 48.6605290128 -3.6150000000
152 1 7.8908952125 50.4140615701 -1.8075000000
153 1 7.4525120234 52.1675941274 0.0000000000
154 1 7.0141288342 53.9211266847 1.8075000000
155 1 6.5757456451 55.6746592420 3.6150000000
156 1 6.1373624559 57.4281917993 5.4225000000
157 1 5.6989792668 59.1817243566 7.2300000000
158 1 10.0828109589 49.0989122020 -5.4225000000
159 1 9.6444277698 50.8524447593 -3.6150000000
160 1 9.2060445806 52.6059773165 -1.8075000000
161 1 8.7676613915 54.3595098738 0.0000000000
162 1 8.3292782024 56.1130424311 1.8075000000
163 1 7.8908950132 57.8665749884 3.6150000000
164 1 11.3979603271 51.2908279484 -5.4225000000
165 1 10.9595771379 53.0443605057 -3.6150000000
166 1 10.5211939488 54.7978930630 -1.8075000000
167 1 10.0828107597 56.5514256203 0.0000000000
168 1 9.6444275705 58.3049581776 1.8075000000
169 1 12.7131096952 53.4827436948 -5.4225000000
170 1 12.2747265061 55.2362762521 -3.6150000000
171 1 11.8363433169 56.9898088094 -1.8075000000
172 1 11.3979601278 58.7433413667 0.0000000000
173 1 14.0282590634 55.6746594413 -5.4225000000
174 1 13.5898758742 57.4281919986 -3.6150000000
175 1 13.1514926851 59.1817245558 -1.8075000000
176 1 15.3434084315 57.8665751877 -5.4225000000
177 1 0.4383823920 28.0565211159 -5.4225000000
178 1 -0.0000007971 29.8100536732 -3.6150000000
179 1 1.7535317602 30.2484368624 -5.4225000000
180 1 1.3151485710 32.0019694196 -3.6150000000
181 1 0.8767653819 33.7555019769 -1.8075000000
182 1 0.4383821928 35.5090345342 0.0000000000
183 1 -0.0000009964 37.2625670915 1.8075000000
184 1 3.0686811283 32.4403526088 -5.4225000000
185 1 2.6302979392 34.1938851661 -3.6150000000
186 1 2.1919147500 35.9474177234 -1.8075000000
187 1 1.7535315609 37.7009502807 0.0000000000
188 1 1.3151483718 39.4544828380 1.8075000000
189 1 0.8767651826 41.2080153952 3.6150000000
190 1 0.4383819935 42.9615479525 5.4225000000
191 1 -0.0000011957 44.7150805098 7.2300000000
192 1 4.3838304965 34.6322683552 -5.4225000000
193 1 3.9454473073 36.3858009125 -3.6150000000
194 1 3.5070641182 38.1393334698 -1.8075000000
195 1 3.0686809290 39.8928660271 0.0000000000
196 1 2.6302977399 41.6463985844 1.8075000000
197 1 2.1919145508 43.3999311417 3.6150000000
198 1 1.7535313616 45.1534636990 5.4225000000
199 1 1.3151481725 46.9069962563 7.2300000000
200 1 5.6989798646 36.8241841017 -5.4225000000
201 1 5.2605966755 38.5777166589 -3.6150000000
202 1 4.8222134863 40.3312492162 -1.8075000000
203 1 4.3838302972 42.0847817735 0.0000000000
204 1 3.9454471081 43.8383143308 1.8075000000
205 1 3.5070639189 45.5918468881 3.6150000000
206 1 3.0686807298 47.3453794454 5.4225000000
207 1 2.6302975406 49.0989120027 7.2300000000
208 1 7.0141292328 39.0160998481 -5.4225000000
209 1 6.5757460436 40.7696324054 -3.6150000000
210 1 6.1373628545 42.5231649627 -1.8075000000
211 1 5.6989796653 44.2766975200 0.0000000000
212 1 5.2605964762 46.0302300772 1.8075000000
213 1 4.8222132871 47.7837626345 3.6150000000
214 1 4.3838300979 49.5372951918 5.4225000000
215 1 3.9454469088 51.2908277491 7.2300000000
216 1 8.3292786009 41.2080155945 -5.4225000000
217 1 7.8908954118 42.9615481518 -3.6150000000
218 1 7.4525122226 44.7150807091 -1.8075000000
219 1 7.0141290335 46.4686132664 0.0000000000
220 1 6.5757458444 48.2221458237 1.8075000000
221 1 6.1373626552 49.9756783810 3.6150000000
222 1 5.6989794661 51.7292109383 5.4225000000
223 1 5.2605962769 53.4827434956 7.2300000000
224 1 9.6444279691 43.3999313410 -5.4225000000
225 1 9.2060447799 45.1534638982 -3.6150000000
226 1 8.7676615908 46.9069964555 -1.8075000000
227 1 8.3292784016 48.6605290128 0.0000000000
228 1 7.8908952125 50.4140615701 1.8075000000
229 1 7.4525120234 52.1675941274 3.6150000000
230 1 7.0141288342 53.9211266847 5.4225000000
231 1 6.5757456451 55.6746592420 7.2300000000
232 1 10.9595773372 45.5918470874 -5.4225000000
233 1 10.5211941481 47.3453796447 -3.6150000000
234 1 10.0828109589 49.0989122020 -1.8075000000
235 1 9.6444277698 50.8524447593 0.0000000000
236 1 9.2060445806 52.6059773165 1.8075000000
237 1 8.7676613915 54.3595098738 3.6150000000
238 1 8.3292782024 56.1130424311 5.4225000000
239 1 7.8908950132 57.8665749884 7.2300000000
240 1 12.2747267054 47.7837628338 -5.4225000000
241 1 11.8363435162 49.5372953911 -3.6150000000
242 1 11.3979603271 51.2908279484 -1.8075000000
243 1 10.9595771379 53.0443605057 0.0000000000
244 1 10.5211939488 54.7978930630 1.8075000000
245 1 10.0828107597 56.5514256203 3.6150000000
246 1 9.6444275705 58.3049581776 5.4225000000
247 1 13.5898760735 49.9756785803 -5.4225000000
248 1 13.1514928844 51.7292111375 -3.6150000000
249 1 12.7131096952 53.4827436948 -1.8075000000
250 1 12.2747265061 55.2362762521 0.0000000000
251 1 11.8363433169 56.9898088094 1.8075000000
252 1 11.3979601278 58.7433413667 3.6150000000
253 1 14.9050254417 52.1675943267 -5.4225000000
254 1 14.4666422525 53.9211268840 -3.6150000000
255 1 14.0282590634 55.6746594413 -1.8075000000
256 1 13.5898758742 57.4281919986 0.0000000000
257 1 13.1514926851 59.1817245558 1.8075000000
258 1 16.2201748098 54.3595100731 -5.4225000000
259 1 15.7817916207 56.1130426304 -3.6150000000
260 1 15.3434084315 57.8665751877 -1.8075000000
261 1 17.5353241780 56.5514258195 -5.4225000000
262 1 17.0969409888 58.3049583768 -3.6150000000
263 1 18.8504735461 58.7433415660 -5.4225000000
264 1 -0.0000005978 22.3575402549 -5.4225000000
265 1 1.3151487703 24.5494560013 -5.4225000000
266 1 0.8767655812 26.3029885586 -3.6150000000
267 1 0.4383823920 28.0565211159 -1.8075000000
268 1 -0.0000007971 29.8100536732 0.0000000000
269 1 2.6302981385 26.7413717478 -5.4225000000
270 1 2.1919149493 28.4949043051 -3.6150000000
271 1 1.7535317602 30.2484368624 -1.8075000000
272 1 1.3151485710 32.0019694196 0.0000000000
273 1 0.8767653819 33.7555019769 1.8075000000
274 1 0.4383821928 35.5090345342 3.6150000000
275 1 -0.0000009964 37.2625670915 5.4225000000
276 1 3.9454475066 28.9332874942 -5.4225000000
277 1 3.5070643175 30.6868200515 -3.6150000000
278 1 3.0686811283 32.4403526088 -1.8075000000
279 1 2.6302979392 34.1938851661 0.0000000000
280 1 2.1919147500 35.9474177234 1.8075000000
281 1 1.7535315609 37.7009502807 3.6150000000
282 1 1.3151483718 39.4544828380 5.4225000000
283 1 0.8767651826 41.2080153952 7.2300000000
284 1 5.2605968748 31.1252032406 -5.4225000000
285 1 4.8222136856 32.8787357979 -3.6150000000
286 1 4.3838304965 34.6322683552 -1.8075000000
287 1 3.9454473073 36.3858009125 0.0000000000
288 1 3.5070641182 38.1393334698 1.8075000000
289 1 3.0686809290 39.8928660271 3.6150000000
290 1 2.6302977399 41.6463985844 5.4225000000
291 1 2.1919145508 43.3999311417 7.2300000000
292 1 6.5757462429 33.3171189871 -5.4225000000
293 1 6.1373630538 35.0706515444 -3.6150000000
294 1 5.6989798646 36.8241841017 -1.8075000000
295 1 5.2605966755 38.5777166589 0.0000000000
296 1 4.8222134863 40.3312492162 1.8075000000
297 1 4.3838302972 42.0847817735 3.6150000000
298 1 3.9454471081 43.8383143308 5.4225000000
299 1 3.5070639189 45.5918468881 7.2300000000
300 1 7.8908956111 35.5090347335 -5.4225000000
301 1 7.4525124219 37.2625672908 -3.6150000000
302 1 7.0141292328 39.0160998481 -1.8075000000
303 1 6.5757460436 40.7696324054 0.0000000000
304 1 6.1373628545 42.5231649627 1.8075000000
305 1 5.6989796653 44.2766975200 3.6150000000
306 1 5.2605964762 46.0302300772 5.4225000000
307 1 4.8222132871 47.7837626345 7.2300000000
308 1 9.2060449792 37.7009504799 -5.4225000000
309 1 8.7676617901 39.4544830372 -3.6150000000
310 1 8.3292786009 41.2080155945 -1.8075000000
311 1 7.8908954118 42.9615481518 0.0000000000
312 1 7.4525122226 44.7150807091 1.8075000000
313 1 7.0141290335 46.4686132664 3.6150000000
314 1 6.5757458444 48.2221458237 5.4225000000
315 1 6.1373626552 49.9756783810 7.2300000000
316 1 10.5211943474 39.8928662264 -5.4225000000
317 1 10.0828111582 41.6463987837 -3.6150000000
318 1 9.6444279691 43.3999313410 -1.8075000000
319 1 9.2060447799 45.1534638982 0.0000000000
320 1 8.7676615908 46.9069964555 1.8075000000
321 1 8.3292784016 48.6605290128 3.6150000000
322 1 7.8908952125 50.4140615701 5.4225000000
323 1 7.4525120234 52.1675941274 7.2300000000
324 1 11.8363437155 42.0847819728 -5.4225000000
325 1 11.3979605264 43.8383145301 -3.6150000000
326 1 10.9595773372 45.5918470874 -1.8075000000
327 1 10.5211941481 47.3453796447 0.0000000000
328 1 10.0828109589 49.0989122020 1.8075000000
329 1 9.6444277698 50.8524447593 3.6150000000
330 1 9.2060445806 52.6059773165 5.4225000000
331 1 8.7676613915 54.3595098738 7.2300000000
332 1 13.1514930836 44.2766977192 -5.4225000000
333 1 12.7131098945 46.0302302765 -3.6150000000
334 1 12.2747267054 47.7837628338 -1.8075000000
335 1 11.8363435162 49.5372953911 0.0000000000
336 1 11.3979603271 51.2908279484 1.8075000000
337 1 10.9595771379 53.0443605057 3.6150000000
338 1 10.5211939488 54.7978930630 5.4225000000
339 1 10.0828107597 56.5514256203 7.2300000000
340 1 14.4666424518 46.4686134657 -5.4225000000
341 1 14.0282592627 48.2221460230 -3.6150000000
342 1 13.5898760735 49.9756785803 -1.8075000000
343 1 13.1514928844 51.7292111375 0.0000000000
344 1 12.7131096952 53.4827436948 1.8075000000
345 1 12.2747265061 55.2362762521 3.6150000000
346 1 11.8363433169 56.9898088094 5.4225000000
347 1 11.3979601278 58.7433413667 7.2300000000
348 1 15.7817918199 48.6605292121 -5.4225000000
349 1 15.3434086308 50.4140617694 -3.6150000000
350 1 14.9050254417 52.1675943267 -1.8075000000
351 1 14.4666422525 53.9211268840 0.0000000000
352 1 14.0282590634 55.6746594413 1.8075000000
353 1 13.5898758742 57.4281919986 3.6150000000
354 1 13.1514926851 59.1817245558 5.4225000000
355 1 17.0969411881 50.8524449585 -5.4225000000
356 1 16.6585579990 52.6059775158 -3.6150000000
357 1 16.2201748098 54.3595100731 -1.8075000000
358 1 15.7817916207 56.1130426304 0.0000000000
359 1 15.3434084315 57.8665751877 1.8075000000
360 1 18.4120905562 53.0443607050 -5.4225000000
361 1 17.9737073671 54.7978932623 -3.6150000000
362 1 17.5353241780 56.5514258195 -1.8075000000
363 1 17.0969409888 58.3049583768 0.0000000000
364 1 19.7272399244 55.2362764514 -5.4225000000
365 1 19.2888567352 56.9898090087 -3.6150000000
366 1 18.8504735461 58.7433415660 -1.8075000000
367 1 21.0423892925 57.4281921978 -5.4225000000
368 1 20.6040061034 59.1817247551 -3.6150000000
369 1 0.8767657804 18.8504751403 -5.4225000000
370 1 0.4383825913 20.6040076976 -3.6150000000
371 1 -0.0000005978 22.3575402549 -1.8075000000
372 1 2.1919151486 21.0423908868 -5.4225000000
373 1 1.7535319595 22.7959234441 -3.6150000000
374 1 1.3151487703 24.5494560013 -1.8075000000
375 1 0.8767655812 26.3029885586 0.0000000000
376 1 0.4383823920 28.0565211159 1.8075000000
377 1 -0.0000007971 29.8100536732 3.6150000000
378 1 3.5070645167 23.2343066332 -5.4225000000
379 1 3.0686813276 24.9878391905 -3.6150000000
380 1 2.6302981385 26.7413717478 -1.8075000000
381 1 2.1919149493 28.4949043051 0.0000000000
382 1 1.7535317602 30.2484368624 1.8075000000
383 1 1.3151485710 32.0019694196 3.6150000000
384 1 0.8767653819 33.7555019769 5.4225000000
385 1 0.4383821928 35.5090345342 7.2300000000
386 1 4.8222138849 25.4262223796 -5.4225000000
387 1 4.3838306958 27.1797549369 -3.6150000000
388 1 3.9454475066 28.9332874942 -1.8075000000
389 1 3.5070643175 30.6868200515 0.0000000000
390 1 3.0686811283 32.4403526088 1.8075000000
391 1 2.6302979392 34.1938851661 3.6150000000
392 1 2.1919147500 35.9474177234 5.4225000000
393 1 1.7535315609 37.7009502807 7.2300000000
394 1 6.1373632530 27.6181381261 -5.4225000000
395 1 5.6989800639 29.3716706834 -3.6150000000
396 1 5.2605968748 31.1252032406 -1.8075000000
397 1 4.8222136856 32.8787357979 0.0000000000
398 1 4.3838304965 34.6322683552 1.8075000000
399 1 3.9454473073 36.3858009125 3.6150000000
400 1 3.5070641182 38.1393334698 5.4225000000
401 1 3.0686809290 39.8928660271 7.2300000000
402 1 7.4525126212 29.8100538725 -5.4225000000
403 1 7.0141294320 31.5635864298 -3.6150000000
404 1 6.5757462429 33.3171189871 -1.8075000000
405 1 6.1373630538 35.0706515444 0.0000000000
406 1 5.6989798646 36.8241841017 1.8075000000
407 1 5.2605966755 38.5777166589 3.6150000000
408 1 4.8222134863 40.3312492162 5.4225000000
409 1 4.3838302972 42.0847817735 7.2300000000
410 1 8.7676619893 32.0019696189 -5.4225000000
411 1 8.3292788002 33.7555021762 -3.6150000000
412 1 7.8908956111 35.5090347335 -1.8075000000
413 1 7.4525124219 37.2625672908 0.0000000000
414 1 7.0141292328 39.0160998481 1.8075000000
415 1 6.5757460436 40.7696324054 3.6150000000
416 1 6.1373628545 42.5231649627 5.4225000000
417 1 5.6989796653 44.2766975200 7.2300000000
418 1 10.0828113575 34.1938853654 -5.4225000000
419 1 9.6444281683 35.9474179226 -3.6150000000
420 1 9.2060449792 37.7009504799 -1.8075000000
421 1 8.7676617901 39.4544830372 0.0000000000
422 1 8.3292786009 41.2080155945 1.8075000000
423 1 7.8908954118 42.9615481518 3.6150000000
424 1 7.4525122226 44.7150807091 5.4225000000
425 1 7.0141290335 46.4686132664 7.2300000000
426 1 11.3979607256 36.3858011118 -5.4225000000
427 1 10.9595775365 38.1393336691 -3.6150000000
428 1 10.5211943474 39.8928662264 -1.8075000000
429 1 10.0828111582 41.6463987837 0.0000000000
430 1 9.6444279691 43.3999313410 1.8075000000
431 1 9.2060447799 45.1534638982 3.6150000000
432 1 8.7676615908 46.9069964555 5.4225000000
433 1 8.3292784016 48.6605290128 7.2300000000
434 1 12.7131100938 38.5777168582 -5.4225000000
435 1 12.2747269046 40.3312494155 -3.6150000000
436 1 11.8363437155 42.0847819728 -1.8075000000
437 1 11.3979605264 43.8383145301 0.0000000000
438 1 10.9595773372 45.5918470874 1.8075000000
439 1 10.5211941481 47.3453796447 3.6150000000
440 1 10.0828109589 49.0989122020 5.4225000000
441 1 9.6444277698 50.8524447593 7.2300000000
442 1 14.0282594619 40.7696326047 -5.4225000000
443 1 13.5898762728 42.5231651619 -3.6150000000
444 1 13.1514930836 44.2766977192 -1.8075000000
445 1 12.7131098945 46.0302302765 0.0000000000
446 1 12.2747267054 47.7837628338 1.8075000000
447 1 11.8363435162 49.5372953911 3.6150000000
448 1 11.3979603271 51.2908279484 5.4225000000
449 1 10.9595771379 53.0443605057 7.2300000000
450 1 15.3434088301 42.9615483511 -5.4225000000
451 1 14.9050256409 44.7150809084 -3.6150000000
452 1 14.4666424518 46.4686134657 -1.8075000000
453 1 14.0282592627 48.2221460230 0.0000000000
454 1 13.5898760735 49.9756785803 1.8075000000
455 1 13.1514928844 51.7292111375 3.6150000000
456 1 12.7131096952 53.4827436948 5.4225000000
457 1 12.2747265061 55.2362762521 7.2300000000
458 1 16.6585581982 45.1534640975 -5.4225000000
459 1 16.2201750091 46.9069966548 -3.6150000000
460 1 15.7817918199 48.6605292121 -1.8075000000
461 1 15.3434086308 50.4140617694 0.0000000000
462 1 14.9050254417 52.1675943267 1.8075000000
463 1 14.4666422525 53.9211268840 3.6150000000
464 1 14.0282590634 55.6746594413 5.4225000000
465 1 13.5898758742 57.4281919986 7.2300000000
466 1 17.9737075664 47.3453798440 -5.4225000000
467 1 17.5353243772 49.0989124012 -3.6150000000
468 1 17.0969411881 50.8524449585 -1.8075000000
469 1 16.6585579990 52.6059775158 0.0000000000
470 1 16.2201748098 54.3595100731 1.8075000000
471 1 15.7817916207 56.1130426304 3.6150000000
472 1 15.3434084315 57.8665751877 5.4225000000
473 1 19.2888569345 49.5372955904 -5.4225000000
474 1 18.8504737454 51.2908281477 -3.6150000000
475 1 18.4120905562 53.0443607050 -1.8075000000
476 1 17.9737073671 54.7978932623 0.0000000000
477 1 17.5353241780 56.5514258195 1.8075000000
478 1 17.0969409888 58.3049583768 3.6150000000
479 1 20.6040063027 51.7292113368 -5.4225000000
480 1 20.1656231135 53.4827438941 -3.6150000000
481 1 19.7272399244 55.2362764514 -1.8075000000
482 1 19.2888567352 56.9898090087 0.0000000000
483 1 18.8504735461 58.7433415660 1.8075000000
484 1 21.9191556708 53.9211270833 -5.4225000000
485 1 21.4807724817 55.6746596405 -3.6150000000
486 1 21.0423892925 57.4281921978 -1.8075000000
487 1 20.6040061034 59.1817247551 0.0000000000
488 1 23.2343050390 56.1130428297 -5.4225000000
489 1 22.7959218498 57.8665753870 -3.6150000000
490 1 24.5494544071 58.3049585761 -5.4225000000
491 1 0.4383827906 13.1514942793 -5.4225000000
492 1 -0.0000003986 14.9050268366 -3.6150000000
493 1 1.7535321587 15.3434100257 -5.4225000000
494 1 1.3151489696 17.0969425830 -3.6150000000
495 1 0.8767657804 18.8504751403 -1.8075000000
496 1 0.4383825913 20.6040076976 0.0000000000
497 1 -0.0000005978 22.3575402549 1.8075000000
498 1 3.0686815269 17.5353257722 -5.4225000000
499 1 2.6302983377 19.2888583295 -3.6150000000
500 1 2.1919151486 21.0423908868 -1.8075000000
501 1 1.7535319595 22.7959234441 0.0000000000
502 1 1.3151487703 24.5494560013 1.8075000000
503 1 0.8767655812 26.3029885586 3.6150000000
504 1 0.4383823920 28.0565211159 5.4225000000
505 1 -0.0000007971 29.8100536732 7.2300000000
506 1 4.3838308950 19.7272415186 -5.4225000000
507 1 3.9454477059 21.4807740759 -3.6150000000
508 1 3.5070645167 23.2343066332 -1.8075000000
509 1 3.0686813276 24.9878391905 0.0000000000
510 1 2.6302981385 26.7413717478 1.8075000000
511 1 2.1919149493 28.4949043051 3.6150000000
512 1 1.7535317602 30.2484368624 5.4225000000
513 1 1.3151485710 32.0019694196 7.2300000000
514 1 5.6989802632 21.9191572650 -5.4225000000
515 1 5.2605970740 23.6726898223 -3.6150000000
516 1 4.8222138849 25.4262223796 -1.8075000000
517 1 4.3838306958 27.1797549369 0.0000000000
518 1 3.9454475066 28.9332874942 1.8075000000
519 1 3.5070643175 30.6868200515 3.6150000000
520 1 3.0686811283 32.4403526088 5.4225000000
521 1 2.6302979392 34.1938851661 7.2300000000
522 1 7.0141296313 24.1110730115 -5.4225000000
523 1 6.5757464422 25.8646055688 -3.6150000000
524 1 6.1373632530 27.6181381261 -1.8075000000
525 1 5.6989800639 29.3716706834 0.0000000000
526 1 5.2605968748 31.1252032406 1.8075000000
527 1 4.8222136856 32.8787357979 3.6150000000
528 1 4.3838304965 34.6322683552 5.4225000000
529 1 3.9454473073 36.3858009125 7.2300000000
530 1 8.3292789995 26.3029887579 -5.4225000000
531 1 7.8908958103 28.0565213152 -3.6150000000
532 1 7.4525126212 29.8100538725 -1.8075000000
533 1 7.0141294320 31.5635864298 0.0000000000
534 1 6.5757462429 33.3171189871 1.8075000000
535 1 6.1373630538 35.0706515444 3.6150000000
536 1 5.6989798646 36.8241841017 5.4225000000
537 1 5.2605966755 38.5777166589 7.2300000000
538 1 9.6444283676 28.4949045043 -5.4225000000
539 1 9.2060451785 30.2484370616 -3.6150000000
540 1 8.7676619893 32.0019696189 -1.8075000000
541 1 8.3292788002 33.7555021762 0.0000000000
542 1 7.8908956111 35.5090347335 1.8075000000
543 1 7.4525124219 37.2625672908 3.6150000000
544 1 7.0141292328 39.0160998481 5.4225000000
545 1 6.5757460436 40.7696324054 7.2300000000
546 1 10.9595777358 30.6868202508 -5.4225000000
547 1 10.5211945466 32.4403528081 -3.6150000000
548 1 10.0828113575 34.1938853654 -1.8075000000
549 1 9.6444281683 35.9474179226 0.0000000000
550 1 9.2060449792 37.7009504799 1.8075000000
551 1 8.7676617901 39.4544830372 3.6150000000
552 1 8.3292786009 41.2080155945 5.4225000000
553 1 7.8908954118 42.9615481518 7.2300000000
554 1 12.2747271039 32.8787359972 -5.4225000000
555 1 11.8363439148 34.6322685545 -3.6150000000
556 1 11.3979607256 36.3858011118 -1.8075000000
557 1 10.9595775365 38.1393336691 0.0000000000
558 1 10.5211943474 39.8928662264 1.8075000000
559 1 10.0828111582 41.6463987837 3.6150000000
560 1 9.6444279691 43.3999313410 5.4225000000
561 1 9.2060447799 45.1534638982 7.2300000000
562 1 13.5898764721 35.0706517436 -5.4225000000
563 1 13.1514932829 36.8241843009 -3.6150000000
564 1 12.7131100938 38.5777168582 -1.8075000000
565 1 12.2747269046 40.3312494155 0.0000000000
566 1 11.8363437155 42.0847819728 1.8075000000
567 1 11.3979605264 43.8383145301 3.6150000000
568 1 10.9595773372 45.5918470874 5.4225000000
569 1 10.5211941481 47.3453796447 7.2300000000
570 1 14.9050258402 37.2625674901 -5.4225000000
571 1 14.4666426511 39.0161000474 -3.6150000000
572 1 14.0282594619 40.7696326047 -1.8075000000
573 1 13.5898762728 42.5231651619 0.0000000000
574 1 13.1514930836 44.2766977192 1.8075000000
575 1 12.7131098945 46.0302302765 3.6150000000
576 1 12.2747267054 47.7837628338 5.4225000000
577 1 11.8363435162 49.5372953911 7.2300000000
578 1 16.2201752084 39.4544832365 -5.4225000000
579 1 15.7817920192 41.2080157938 -3.6150000000
580 1 15.3434088301 42.9615483511 -1.8075000000
581 1 14.9050256409 44.7150809084 0.0000000000
582 1 14.4666424518 46.4686134657 1.8075000000
583 1 14.0282592627 48.2221460230 3.6150000000
584 1 13.5898760735 49.9756785803 5.4225000000
585 1 13.1514928844 51.7292111375 7.2300000000
586 1 17.5353245765 41.6463989829 -5.4225000000
587 1 17.0969413874 43.3999315402 -3.6150000000
588 1 16.6585581982 45.1534640975 -1.8075000000
589 1 16.2201750091 46.9069966548 0.0000000000
590 1 15.7817918199 48.6605292121 1.8075000000
591 1 15.3434086308 50.4140617694 3.6150000000
592 1 14.9050254417 52.1675943267 5.4225000000
593 1 14.4666422525 53.9211268840 7.2300000000
594 1 18.8504739447 43.8383147294 -5.4225000000
595 1 18.4120907555 45.5918472867 -3.6150000000
596 1 17.9737075664 47.3453798440 -1.8075000000
597 1 17.5353243772 49.0989124012 0.0000000000
598 1 17.0969411881 50.8524449585 1.8075000000
599 1 16.6585579990 52.6059775158 3.6150000000
600 1 16.2201748098 54.3595100731 5.4225000000
601 1 15.7817916207 56.1130426304 7.2300000000
602 1 20.1656233128 46.0302304758 -5.4225000000
603 1 19.7272401237 47.7837630331 -3.6150000000
604 1 19.2888569345 49.5372955904 -1.8075000000
605 1 18.8504737454 51.2908281477 0.0000000000
606 1 18.4120905562 53.0443607050 1.8075000000
607 1 17.9737073671 54.7978932623 3.6150000000
608 1 17.5353241780 56.5514258195 5.4225000000
609 1 17.0969409888 58.3049583768 7.2300000000
610 1 21.4807726810 48.2221462222 -5.4225000000
611 1 21.0423894918 49.9756787795 -3.6150000000
612 1 20.6040063027 51.7292113368 -1.8075000000
613 1 20.1656231135 53.4827438941 0.0000000000
614 1 19.7272399244 55.2362764514 1.8075000000
615 1 19.2888567352 56.9898090087 3.6150000000
616 1 18.8504735461 58.7433415660 5.4225000000
617 1 22.7959220491 50.4140619687 -5.4225000000
618 1 22.3575388600 52.1675945260 -3.6150000000
619 1 21.9191556708 53.9211270833 -1.8075000000
620 1 21.4807724817 55.6746596405 0.0000000000
621 1 21.0423892925 57.4281921978 1.8075000000
622 1 20.6040061034 59.1817247551 3.6150000000
623 1 24.1110714173 52.6059777151 -5.4225000000
624 1 23.6726882281 54.3595102724 -3.6150000000
625 1 23.2343050390 56.1130428297 -1.8075000000
626 1 22.7959218498 57.8665753870 0.0000000000
627 1 25.4262207854 54.7978934615 -5.4225000000
628 1 24.9878375963 56.5514260188 -3.6150000000
629 1 24.5494544071 58.3049585761 -1.8075000000
630 1 26.7413701536 56.9898092080 -5.4225000000
631 1 26.3029869644 58.7433417653 -3.6150000000
632 1 28.0565195217 59.1817249544 -5.4225000000
633 1 -0.0000001993 7.4525134183 -5.4225000000
634 1 1.3151491689 9.6444291647 -5.4225000000
635 1 0.8767659797 11.3979617220 -3.6150000000
636 1 0.4383827906 13.1514942793 -1.8075000000