# LAMMPS data file Sigma = 17, inclination = 0.000000
#LAMMPS data file
29248 atoms
2 atom types
-100.1000000000 100.1000000000 xlo xhi
-59.6201706000 59.6201706000 ylo yhi
-7.2300000000 7.2300000000 zlo zhi
0.0 0.0 0.0 xy xz yz

Atoms # atomic

1 1 0.4383815949 57.8663521719 -5.4225000000
2 1 -0.0000013949 52.1676546942 -5.4225000000
3 1 1.3151479732 54.3585827528 -5.4225000000
4 1 0.8767647841 56.1124893365 -3.6150000000
5 1 0.4383815949 57.8663521719 -1.8075000000
6 1 2.6302973413 56.5496698106 -5.4225000000
7 1 2.1919141522 58.3035998670 -3.6150000000
8 1 3.9454467095 58.7408904794 -5.4225000000
9 1 0.8767649833 48.6597536369 -5.4225000000
10 1 0.4383817942 50.4137337040 -3.6150000000
11 1 -0.0000013949 52.1676546942 -1.8075000000
12 1 2.1919143515 50.8506102653 -5.4225000000
13 1 1.7535311623 52.6046257105 -3.6150000000
14 1 1.3151479732 54.3585827528 -1.8075000000
15 1 0.8767647841 56.1124893365 0.0000000000
16 1 0.4383815949 57.8663521719 1.8075000000
17 1 3.5070637196 53.0416548815 -5.4225000000
18 1 3.0686805305 54.7956905462 -3.6150000000
19 1 2.6302973413 56.5496698106 -1.8075000000
20 1 2.1919141522 58.3035998670 0.0000000000
21 1 4.8222130878 55.2328545321 -5.4225000000
22 1 4.3838298986 56.9868993194 -3.6150000000
23 1 3.9454467095 58.7408904794 -1.8075000000
24 1 6.1373624559 57.4241822835 -5.4225000000
25 1 5.6989792668 59.1782281429 -3.6150000000
26 1 0.4383819935 42.9610573296 -5.4225000000
27 1 -0.0000011957 44.7151324375 -3.6150000000
28 1 1.7535313616 45.1515725891 -5.4225000000
29 1 1.3151481725 46.9057041208 -3.6150000000
30 1 0.8767649833 48.6597536369 -1.8075000000
31 1 0.4383817942 50.4137337040 0.0000000000
32 1 -0.0000013949 52.1676546942 1.8075000000
33 1 3.0686807298 47.3423645583 -5.4225000000
34 1 2.6302975406 49.0965269733 -3.6150000000
35 1 2.1919143515 50.8506102653 -1.8075000000
36 1 1.7535311623 52.6046257105 0.0000000000
37 1 1.3151479732 54.3585827528 1.8075000000
38 1 0.8767647841 56.1124893365 3.6150000000
39 1 0.4383815949 57.8663521719 5.4225000000
40 1 4.3838300979 49.5333790609 -5.4225000000
41 1 3.9454469088 51.2875543706 -3.6150000000
42 1 3.5070637196 53.0416548815 -1.8075000000
43 1 3.0686805305 54.7956905462 0.0000000000
44 1 2.6302973413 56.5496698106 1.8075000000
45 1 2.1919141522 58.3035998670 3.6150000000
46 1 5.6989794661 51.7245729740 -5.4225000000
47 1 5.2605962769 53.4787486492 -3.6150000000
48 1 4.8222130878 55.2328545321 -1.8075000000
49 1 4.3838298986 56.9868993194 0.0000000000
50 1 3.9454467095 58.7408904794 1.8075000000
51 1 7.0141288342 53.9159119676 -5.4225000000
52 1 6.5757456451 55.6700794099 -3.6150000000
53 1 6.1373624559 57.4241822835 -1.8075000000
54 1 5.6989792668 59.1782281429 0.0000000000
55 1 8.3292782024 56.1073686629 -5.4225000000
56 1 7.8908950132 57.8615220964 -3.6150000000
57 1 9.6444275705 58.2989211627 -5.4225000000
58 1 -0.0000009964 37.2626101810 -5.4225000000
59 1 1.3151483718 39.4525883638 -5.4225000000
60 1 0.8767651826 41.2068830139 -3.6150000000
61 1 0.4383819935 42.9610573296 -1.8075000000
62 1 -0.0000011957 44.7151324375 0.0000000000
63 1 2.6302977399 41.6429987821 -5.4225000000
64 1 2.1919145508 43.3973437305 -3.6150000000
65 1 1.7535313616 45.1515725891 -1.8075000000
66 1 1.3151481725 46.9057041208 0.0000000000
67 1 0.8767649833 48.6597536369 1.8075000000
68 1 0.4383817942 50.4137337040 3.6150000000
69 1 -0.0000013949 52.1676546942 5.4225000000
70 1 3.9454471081 43.8337455009 -5.4225000000
71 1 3.5070639189 45.5881094977 -3.6150000000
72 1 3.0686807298 47.3423645583 -1.8075000000
73 1 2.6302975406 49.0965269733 0.0000000000
74 1 2.1919143515 50.8506102653 1.8075000000
75 1 1.7535311623 52.6046257105 3.6150000000
76 1 1.3151479732 54.3585827528 5.4225000000
77 1 0.8767647841 56.1124893365 7.2300000000
78 1 5.2605964762 46.0247547767 -5.4225000000
79 1 4.8222132871 47.7791171839 -3.6150000000
80 1 4.3838300979 49.5333790609 -1.8075000000
81 1 3.9454469088 51.2875543706 0.0000000000
82 1 3.5070637196 53.0416548815 1.8075000000
83 1 3.0686805305 54.7956905462 3.6150000000
84 1 2.6302973413 56.5496698106 5.4225000000
85 1 2.1919141522 58.3035998670 7.2300000000
86 1 6.5757458444 48.2159698996 -5.4225000000
87 1 6.1373626552 49.9703173524 -3.6150000000
88 1 5.6989794661 51.7245729740 -1.8075000000
89 1 5.2605962769 53.4787486492 0.0000000000
90 1 4.8222130878 55.2328545321 1.8075000000
91 1 4.3838298986 56.9868993194 3.6150000000
92 1 3.9454467095 58.7408904794 5.4225000000
93 1 7.8908952125 50.4073471338 -5.4225000000
94 1 7.4525120234 52.1616712366 -3.6150000000
95 1 7.0141288342 53.9159119676 -1.8075000000
96 1 6.5757456451 55.6700794099 0.0000000000
97 1 6.1373624559 57.4241822835 1.8075000000
98 1 5.6989792668 59.1782281429 3.6150000000
99 1 9.2060445806 52.5988526065 -5.4225000000
100 1 8.7676613915 54.3531483485 -3.6150000000
101 1 8.3292782024 56.1073686629 -1.8075000000
102 1 7.8908950132 57.8615220964 0.0000000000
103 1 10.5211939488 54.7904599516 -5.4225000000
104 1 10.0828107597 56.5447246185 -3.6150000000
105 1 9.6444275705 58.2989211627 -1.8075000000
106 1 11.8363433169 56.9821485368 -5.4225000000
107 1 11.3979601278 58.7363809615 -3.6150000000
108 1 13.1514926851 59.1739021280 -5.4225000000
109 1 0.8767653819 33.7537312004 -5.4225000000
110 1 0.4383821928 35.5082641106 -3.6150000000
111 1 -0.0000009964 37.2626101810 -1.8075000000
112 1 2.1919147500 35.9435244695 -5.4225000000
113 1 1.7535315609 37.6981467749 -3.6150000000
114 1 1.3151483718 39.4525883638 -1.8075000000
115 1 0.8767651826 41.2068830139 0.0000000000
116 1 0.4383819935 42.9610573296 1.8075000000
117 1 -0.0000011957 44.7151324375 3.6150000000
118 1 3.5070641182 38.1338625289 -5.4225000000
119 1 3.0686809290 39.8885146120 -3.6150000000
120 1 2.6302977399 41.6429987821 -1.8075000000
121 1 2.1919145508 43.3973437305 0.0000000000
122 1 1.7535313616 45.1515725891 1.8075000000
123 1 1.3151481725 46.9057041208 3.6150000000
124 1 0.8767649833 48.6597536369 5.4225000000
125 1 0.4383817942 50.4137337040 7.2300000000
126 1 4.8222134863 40.3246076008 -5.4225000000
127 1 4.3838302972 42.0792528551 -3.6150000000
128 1 3.9454471081 43.8337455009 -1.8075000000
129 1 3.5070639189 45.5881094977 0.0000000000
130 1 3.0686807298 47.3423645583 1.8075000000
131 1 2.6302975406 49.0965269733 3.6150000000
132 1 2.1919143515 50.8506102653 5.4225000000
133 1 1.7535311623 52.6046257105 7.2300000000
134 1 6.1373628545 42.5156586633 -5.4225000000
135 1 5.6989796653 44.2702752183 -3.6150000000
136 1 5.2605964762 46.0247547767 -1.8075000000
137 1 4.8222132871 47.7791171839 0.0000000000
138 1 4.3838300979 49.5333790609 1.8075000000
139 1 3.9454469088 51.2875543706 3.6150000000
140 1 3.5070637196 53.0416548815 5.4225000000
141 1 3.0686805305 54.7956905462 7.2300000000
142 1 7.4525122226 44.7069412841 -5.4225000000
143 1 7.0141290335 46.4615166730 -3.6150000000
144 1 6.5757458444 48.2159698996 -1.8075000000
145 1 6.1373626552 49.9703173524 0.0000000000
146 1 5.6989794661 51.7245729740 1.8075000000
147 1 5.2605962769 53.4787486492 3.6150000000
148 1 4.8222130878 55.2328545321 5.4225000000
149 1 4.3838298986 56.9868993194 7.2300000000
150 1 8.7676615908 46.8984002498 -5.4225000000
151 1 8.3292784016 48.6529279833 -3.6150000000
152 1 7.8908952125 50.4073471338 -1.8075000000
153 1 7.4525120234 52.1616712366 0.0000000000
154 1 7.0141288342 53.9159119676 1.8075000000
155 1 6.5757456451 55.6700794099 3.6150000000
156 1 6.1373624559 57.4241822835 5.4225000000
157 1 5.6989792668 59.1782281429 7.2300000000
158 1 10.0828109589 49.0899942906 -5.4225000000
159 1 9.6444277698 50.8444716543 -3.6150000000
160 1 9.2060445806 52.5988526065 -1.8075000000
161 1 8.7676613915 54.3531483485 0.0000000000
162 1 8.3292782024 56.1073686629 1.8075000000
163 1 7.8908950132 57.8615220964 3.6150000000
164 1 11.3979603271 51.2816923163 -5.4225000000
165 1 10.9595771379 53.0361189506 -3.6150000000
166 1 10.5211939488 54.7904599516 -1.8075000000
167 1 10.0828107597 56.5447246185 0.0000000000
168 1 9.6444275705 58.2989211627 1.8075000000
169 1 12.7131096952 53.4734707244 -5.4225000000
170 1 12.2747265061 55.2278477078 -3.6150000000
171 1 11.8363433169 56.9821485368 -1.8075000000
172 1 11.3979601278 58.7363809615 0.0000000000
173 1 14.0282590634 55.6653114635 -5.4225000000
174 1 13.5898758742 57.4196407197 -3.6150000000
175 1 13.1514926851 59.1739021280 -1.8075000000
176 1 15.3434084315 57.8572006320 -5.4225000000
177 1 0.4383823920 28.0551922868 -5.4225000000
178 1 -0.0000007971 29.8100879247 -3.6150000000
179 1 1.7535317602 30.2438847434 -5.4225000000
180 1 1.3151485710 31.9989606892 -3.6150000000
181 1 0.8767653819 33.7537312004 -1.8075000000
182 1 0.4383821928 35.5082641106 0.0000000000
183 1 -0.0000009964 37.2626101810 1.8075000000
184 1 3.0686811283 32.4335520719 -5.4225000000
185 1 2.6302979392 34.1886781942 -3.6150000000
186 1 2.1919147500 35.9435244695 -1.8075000000
187 1 1.7535315609 37.6981467749 0.0000000000
188 1 1.3151483718 39.4525883638 1.8075000000
189 1 0.8767651826 41.2068830139 3.6150000000
190 1 0.4383819935 42.9610573296 5.4225000000
191 1 -0.0000011957 44.7151324375 7.2300000000
192 1 4.3838304965 34.6239022548 -5.4225000000
193 1 3.9454473073 36.3790067267 -3.6150000000
194 1 3.5070641182 38.1338625289 -1.8075000000
195 1 3.0686809290 39.8885146120 0.0000000000
196 1 2.6302977399 41.6429987821 1.8075000000
197 1 2.1919145508 43.3973437305 3.6150000000
198 1 1.7535313616 45.1515725891 5.4225000000
199 1 1.3151481725 46.9057041208 7.2300000000
200 1 5.6989798646 36.8147357099 -5.4225000000
201 1 5.2605966755 38.5697804947 -3.6150000000
202 1 4.8222134863 40.3246076008 -1.8075000000
203 1 4.3838302972 42.0792528551 0.0000000000
204 1 3.9454471081 43.8337455009 1.8075000000
205 1 3.5070639189 45.5881094977 3.6150000000
206 1 3.0686807298 47.3423645583 5.4225000000
207 1 2.6302975406 49.0965269733 7.2300000000
208 1 7.0141292328 39.0059147828 -5.4225000000
209 1 6.5757460436 40.7608813528 -3.6150000000
210 1 6.1373628545 42.5156586633 -1.8075000000
211 1 5.6989796653 44.2702752183 0.0000000000
212 1 5.2605964762 46.0247547767 1.8075000000
213 1 4.8222132871 47.7791171839 3.6150000000
214 1 4.3838300979 49.5333790609 5.4225000000
215 1 3.9454469088 51.2875543706 7.2300000000
216 1 8.3292786009 41.1973434130 -5.4225000000
217 1 7.8908954118 42.9522244405 -3.6150000000
218 1 7.4525122226 44.7069412841 -1.8075000000
219 1 7.0141290335 46.4615166730 0.0000000000
220 1 6.5757458444 48.2159698996 1.8075000000
221 1 6.1373626552 49.9703173524 3.6150000000
222 1 5.6989794661 51.7245729740 5.4225000000
223 1 5.2605962769 53.4787486492 7.2300000000
224 1 9.6444279691 43.3889537293 -5.4225000000
225 1 9.2060447799 45.1437482338 -3.6150000000
226 1 8.7676615908 46.8984002498 -1.8075000000
227 1 8.3292784016 48.6529279833 0.0000000000
228 1 7.8908952125 50.4073471338 1.8075000000
229 1 7.4525120234 52.1616712366 3.6150000000
230 1 7.0141288342 53.9159119676 5.4225000000
231 1 6.5757456451 55.6700794099 7.2300000000
232 1 10.9595773372 45.5806971923 -5.4225000000
233 1 10.5211941481 47.3354076921 -3.6150000000
234 1 10.0828109589 49.0899942906 -1.8075000000
235 1 9.6444277698 50.8444716543 0.0000000000
236 1 9.2060445806 52.5988526065 1.8075000000
237 1 8.7676613915 54.3531483485 3.6150000000
238 1 8.3292782024 56.1073686629 5.4225000000
239 1 7.8908950132 57.8615220964 7.2300000000
240 1 12.2747267054 47.7725386897 -5.4225000000
241 1 11.8363435162 49.5271695258 -3.6150000000
242 1 11.3979603271 51.2816923163 -1.8075000000
243 1 10.9595771379 53.0361189506 0.0000000000
244 1 10.5211939488 54.7904599516 1.8075000000
245 1 10.0828107597 56.5447246185 3.6150000000
246 1 9.6444275705 58.2989211627 5.4225000000
247 1 13.5898760735 49.9644525547 -5.4225000000
248 1 13.1514928844 51.7190089070 -3.6150000000
249 1 12.7131096952 53.4734707244 -1.8075000000
250 1 12.2747265061 55.2278477078 0.0000000000
251 1 11.8363433169 56.9821485368 1.8075000000
252 1 11.3979601278 58.7363809615 3.6150000000
253 1 14.9050254417 52.1564198474 -5.4225000000
254 1 14.4666422525 53.9109071618 -3.6150000000
255 1 14.0282590634 55.6653114635 -1.8075000000
256 1 13.5898758742 57.4196407197 0.0000000000
257 1 13.1514926851 59.1739021280 1.8075000000
258 1 16.2201748098 54.3484264745 -5.4225000000
259 1 15.7817916207 56.1028501362 -3.6150000000
260 1 15.3434084315 57.8572006320 -1.8075000000
261 1 17.5353241780 56.5404618719 -5.4225000000
262 1 17.0969409888 58.2948270271 -3.6150000000
263 1 18.8504735461 58.7325180718 -5.4225000000
264 1 -0.0000005978 22.3575656688 -5.4225000000
265 1 1.3151487703 24.5439702017 -5.4225000000
266 1 0.8767655812 26.2998732033 -3.6150000000
267 1 0.4383823920 28.0551922868 -1.8075000000
268 1 -0.0000007971 29.8100879247 0.0000000000
269 1 2.6302981385 26.7324148360 -5.4225000000
270 1 2.1919149493 28.4884115029 -3.6150000000
271 1 1.7535317602 30.2438847434 -1.8075000000
272 1 1.3151485710 31.9989606892 0.0000000000
273 1 0.8767653819 33.7537312004 1.8075000000
274 1 0.4383821928 35.5082641106 3.6150000000
275 1 -0.0000009964 37.2626101810 5.4225000000
276 1 3.9454475066 28.9221460992 -5.4225000000
277 1 3.5070643175 30.6780732790 -3.6150000000
278 1 3.0686811283 32.4335520719 -1.8075000000
279 1 2.6302979392 34.1886781942 0.0000000000
280 1 2.1919147500 35.9435244695 1.8075000000
281 1 1.7535315609 37.6981467749 3.6150000000
282 1 1.3151483718 39.4525883638 5.4225000000
283 1 0.8767651826 41.2068830139 7.2300000000
284 1 5.2605968748 31.1127051089 -5.4225000000
285 1 4.8222136856 32.8684923699 -3.6150000000
286 1 4.3838304965 34.6239022548 -1.8075000000
287 1 3.9454473073 36.3790067267 0.0000000000
288 1 3.5070641182 38.1338625289 1.8075000000
289 1 3.0686809290 39.8885146120 3.6150000000
290 1 2.6302977399 41.6429987821 5.4225000000
291 1 2.1919145508 43.3973437305 7.2300000000
292 1 6.5757462429 33.3038068093 -5.4225000000
293 1 6.1373630538 35.0594292182 -3.6150000000
294 1 5.6989798646 36.8147357099 -1.8075000000
295 1 5.2605966755 38.5697804947 0.0000000000
296 1 4.8222134863 40.3246076008 1.8075000000
297 1 4.3838302972 42.0792528551 3.6150000000
298 1 3.9454471081 43.8337455009 5.4225000000
299 1 3.5070639189 45.5881094977 7.2300000000
300 1 7.8908956111 35.4952700177 -5.4225000000
301 1 7.4525124219 37.2507247137 -3.6150000000
302 1 7.0141292328 39.0059147828 -1.8075000000
303 1 6.5757460436 40.7608813528 0.0000000000
304 1 6.1373628545 42.5156586633 1.8075000000
305 1 5.6989796653 44.2702752183 3.6150000000
306 1 5.2605964762 46.0247547767 5.4225000000
307 1 4.8222132871 47.7791171839 7.2300000000
308 1 9.2060449792 37.6869769834 -5.4225000000
309 1 8.7676617901 39.4422714259 -3.6150000000
310 1 8.3292786009 41.1973434130 -1.8075000000
311 1 7.8908954118 42.9522244405 0.0000000000
312 1 7.4525122226 44.7069412841 1.8075000000
313 1 7.0141290335 46.4615166730 3.6150000000
314 1 6.5757458444 48.2159698996 5.4225000000
315 1 6.1373626552 49.9703173524 7.2300000000
316 1 10.5211943474 39.8788496191 -5.4225000000
317 1 10.0828111582 41.6339956470 -3.6150000000
318 1 9.6444279691 43.3889537293 -1.8075000000
319 1 9.2060447799 45.1437482338 0.0000000000
320 1 8.7676615908 46.8984002498 1.8075000000
321 1 8.3292784016 48.6529279833 3.6150000000
322 1 7.8908952125 50.4073471338 5.4225000000
323 1 7.4525120234 52.1616712366 7.2300000000
324 1 11.8363437155 42.0708352141 -5.4225000000
325 1 11.3979605264 43.8258460493 -3.6150000000
326 1 10.9595773372 45.5806971923 -1.8075000000
327 1 10.5211941481 47.3354076921 0.0000000000
328 1 10.0828109589 49.0899942906 1.8075000000
329 1 9.6444277698 50.8444716543 3.6150000000
330 1 9.2060445806 52.5988526065 5.4225000000
331 1 8.7676613915 54.3531483485 7.2300000000
332 1 13.1514930836 44.2628976408 -5.4225000000
333 1 12.7131098945 46.0177864090 -3.6150000000
334 1 12.2747267054 47.7725386897 -1.8075000000
335 1 11.8363435162 49.5271695258 0.0000000000
336 1 11.3979603271 51.2816923163 1.8075000000
337 1 10.9595771379 53.0361189506 3.6150000000
338 1 10.5211939488 54.7904599516 5.4225000000
339 1 10.0828107597 56.5447246185 7.2300000000
340 1 14.4666424518 46.4550118197 -5.4225000000
341 1 14.0282592627 48.2097908572 -3.6150000000
342 1 13.5898760735 49.9644525547 -1.8075000000
343 1 13.1514928844 51.7190089070 0.0000000000
344 1 12.7131096952 53.4734707244 1.8075000000
345 1 12.2747265061 55.2278477078 3.6150000000
346 1 11.8363433169 56.9821485368 5.4225000000
347 1 11.3979601278 58.7363809615 7.2300000000
348 1 15.7817918199 48.6471601577 -5.4225000000
349 1 15.3434086308 50.4018407305 -3.6150000000
350 1 14.9050254417 52.1564198474 -1.8075000000
351 1 14.4666422525 53.9109071618 0.0000000000
352 1 14.0282590634 55.6653114635 1.8075000000
353 1 13.5898758742 57.4196407197 3.6150000000
354 1 13.1514926851 59.1739021280 5.4225000000
355 1 17.0969411881 50.8393302141 -5.4225000000
356 1 16.6585579990 52.5939224459 -3.6150000000
357 1 16.2201748098 54.3484264745 -1.8075000000
358 1 15.7817916207 56.1028501362 0.0000000000
359 1 15.3434084315 57.8572006320 1.8075000000
360 1 18.4120905562 53.0315131407 -5.4225000000
361 1 17.9737073671 54.7860260476 -3.6150000000
362 1 17.5353241780 56.5404618719 -1.8075000000
363 1 17.0969409888 58.2948270271 0.0000000000
364 1 19.7272399244 55.2237026254 -5.4225000000
365 1 19.2888567352 56.9781441975 -3.6150000000
366 1 18.8504735461 58.7325180718 -1.8075000000
367 1 21.0423892925 57.4158941633 -5.4225000000
368 1 20.6040061034 59.1702714653 -3.6150000000
369 1 0.8767657804 18.8435235099 -5.4225000000
370 1 0.4383825913 20.6012326349 -3.6150000000
371 1 -0.0000005978 22.3575656688 -1.8075000000
372 1 2.1919151486 21.0293355016 -5.4225000000
373 1 1.7535319595 22.7872451259 -3.6150000000
374 1 1.3151487703 24.5439702017 -1.8075000000
375 1 0.8767655812 26.2998732033 0.0000000000
376 1 0.4383823920 28.0551922868 1.8075000000
377 1 -0.0000007971 29.8100879247 3.6150000000
378 1 3.5070645167 23.2180767085 -5.4225000000
379 1 3.0686813276 24.9757191285 -3.6150000000
380 1 2.6302981385 26.7324148360 -1.8075000000
381 1 2.1919149493 28.4884115029 0.0000000000
382 1 1.7535317602 30.2438847434 1.8075000000
383 1 1.3151485710 31.9989606892 3.6150000000
384 1 0.8767653819 33.7537312004 5.4225000000
385 1 0.4383821928 35.5082641106 7.2300000000
386 1 4.8222138849 25.4083976402 -5.4225000000
387 1 4.3838306958 27.1656437880 -3.6150000000
388 1 3.9454475066 28.9221460992 -1.8075000000
389 1 3.5070643175 30.6780732790 0.0000000000
390 1 3.0686811283 32.4335520719 1.8075000000
391 1 2.6302979392 34.1886781942 3.6150000000
392 1 2.1919147500 35.9435244695 5.4225000000
393 1 1.7535315609 37.6981467749 7.2300000000
394 1 6.1373632530 27.5996073160 -5.4225000000
395 1 5.6989800639 29.3564489253 -3.6150000000
396 1 5.2605968748 31.1127051089 -1.8075000000
397 1 4.8222136856 32.8684923699 0.0000000000
398 1 4.3838304965 34.6239022548 1.8075000000
399 1 3.9454473073 36.3790067267 3.6150000000
400 1 3.5070641182 38.1338625289 5.4225000000
401 1 3.0686809290 39.8885146120 7.2300000000
402 1 7.4525126212 29.7913319923 -5.4225000000
403 1 7.0141294320 31.5478017275 -3.6150000000
404 1 6.5757462429 33.3038068093 -1.8075000000
405 1 6.1373630538 35.0594292182 0.0000000000
406 1 5.6989798646 36.8147357099 1.8075000000
407 1 5.2605966755 38.5697804947 3.6150000000
408 1 4.8222134863 40.3246076008 5.4225000000
409 1 4.3838302972 42.0792528551 7.2300000000
410 1 8.7676619893 31.9833599917 -5.4225000000
411 1 8.3292788002 33.7395013879 -3.6150000000
412 1 7.8908956111 35.4952700177 -1.8075000000
413 1 7.4525124219 37.2507247137 0.0000000000
414 1 7.0141292328 39.0059147828 1.8075000000
415 1 6.5757460436 40.7608813528 3.6150000000
416 1 6.1373628545 42.5156586633 5.4225000000
417 1 5.6989796653 44.2702752183 7.2300000000
418 1 10.0828113575 34.1755669303 -5.4225000000
419 1 9.6444281683 35.9314231605 -3.6150000000
420 1 9.2060449792 37.6869769834 -1.8075000000
421 1 8.7676617901 39.4422714259 0.0000000000
422 1 8.3292786009 41.1973434130 1.8075000000
423 1 7.8908954118 42.9522244405 3.6150000000
424 1 7.4525122226 44.7069412841 5.4225000000
425 1 7.0141290335 46.4615166730 7.2300000000
426 1 11.3979607256 36.3678775988 -5.4225000000
427 1 10.9595775365 38.1234876122 -3.6150000000
428 1 10.5211943474 39.8788496191 -1.8075000000
429 1 10.0828111582 41.6339956470 0.0000000000
430 1 9.6444279691 43.3889537293 1.8075000000
431 1 9.2060447799 45.1437482338 3.6150000000
432 1 8.7676615908 46.8984002498 5.4225000000
433 1 8.3292784016 48.6529279833 7.2300000000
434 1 12.7131100938 38.5602455441 -5.4225000000
435 1 12.2747269046 40.3156431220 -3.6150000000
436 1 11.8363437155 42.0708352141 -1.8075000000
437 1 11.3979605264 43.8258460493 0.0000000000
438 1 10.9595773372 45.5806971923 1.8075000000
439 1 10.5211941481 47.3354076921 3.6150000000
440 1 10.0828109589 49.0899942906 5.4225000000
441 1 9.6444277698 50.8444716543 7.2300000000
442 1 14.0282594619 40.7526416558 -5.4225000000
443 1 13.5898762728 42.5078555908 -3.6150000000
444 1 13.1514930836 44.2628976408 -1.8075000000
445 1 12.7131098945 46.0177864090 0.0000000000
446 1 12.2747267054 47.7725386897 1.8075000000
447 1 11.8363435162 49.5271695258 3.6150000000
448 1 11.3979603271 51.2816923163 5.4225000000
449 1 10.9595771379 53.0361189506 7.2300000000
450 1 15.3434088301 42.9450475525 -5.4225000000
451 1 14.9050256409 44.7001022105 -3.6150000000
452 1 14.4666424518 46.4550118197 -1.8075000000
453 1 14.0282592627 48.2097908572 0.0000000000
454 1 13.5898760735 49.9644525547 1.8075000000
455 1 13.1514928844 51.7190089070 3.6150000000
456 1 12.7131096952 53.4734707244 5.4225000000
457 1 12.2747265061 55.2278477078 7.2300000000
458 1 16.6585581982 45.1374516284 -5.4225000000
459 1 16.2201750091 46.8923675925 -3.6150000000
460 1 15.7817918199 48.6471601577 -1.8075000000
461 1 15.3434086308 50.4018407305 0.0000000000
462 1 14.9050254417 52.1564198474 1.8075000000
463 1 14.4666422525 53.9109071618 3.6150000000
464 1 14.0282590634 55.6653114635 5.4225000000
465 1 13.5898758742 57.4196407197 7.2300000000
466 1 17.9737075664 47.3298466279 -5.4225000000
467 1 17.5353243772 49.0846413044 -3.6150000000
468 1 17.0969411881 50.8393302141 -1.8075000000
469 1 16.6585579990 52.5939224459 0.0000000000
470 1 16.2201748098 54.3484264745 1.8075000000
471 1 15.7817916207 56.1028501362 3.6150000000
472 1 15.3434084315 57.8572006320 5.4225000000
473 1 19.2888569345 49.5222281241 -5.4225000000
474 1 18.8504737454 51.2769162720 -3.6150000000
475 1 18.4120905562 53.0315131407 -1.8075000000
476 1 17.9737073671 54.7860260476 0.0000000000
477 1 17.5353241780 56.5404618719 1.8075000000
478 1 17.0969409888 58.2948270271 3.6150000000
479 1 20.6040063027 51.7145935443 -5.4225000000
480 1 20.1656231135 53.4691877235 -3.6150000000
481 1 19.7272399244 55.2237026254 -1.8075000000
482 1 19.2888567352 56.9781441975 0.0000000000
483 1 18.8504735461 58.7325180718 1.8075000000
484 1 21.9191556708 53.9069415382 -5.4225000000
485 1 21.4807724817 55.6614524797 -3.6150000000
486 1 21.0423892925 57.4158941633 -1.8075000000
487 1 20.6040061034 59.1702714653 0.0000000000
488 1 23.2343050390 56.0992715604 -5.4225000000
489 1 22.7959218498 57.8537084722 -3.6150000000
490 1 24.5494544071 58.2915835927 -5.4225000000
491 1 0.4383827906 13.1415339078 -5.4225000000
492 1 -0.0000003986 14.9050434149 -3.6150000000
493 1 1.7535321587 15.3196187173 -5.4225000000
494 1 1.3151489696 17.0835469951 -3.6150000000
495 1 0.8767657804 18.8435235099 -1.8075000000
496 1 0.4383825913 20.6012326349 0.0000000000
497 1 -0.0000005978 22.3575656688 1.8075000000
498 1 3.0686815269 17.5073647568 -5.4225000000
499 1 2.6302983377 19.2696756249 -3.6150000000
500 1 2.1919151486 21.0293355016 -1.8075000000
501 1 1.7535319595 22.7872451259 0.0000000000
502 1 1.3151487703 24.5439702017 1.8075000000
503 1 0.8767655812 26.2998732033 3.6150000000
504 1 0.4383823920 28.0551922868 5.4225000000
505 1 -0.0000007971 29.8100879247 7.2300000000
506 1 4.3838308950 19.6983909284 -5.4225000000
507 1 3.9454477059 21.4591349298 -3.6150000000
508 1 3.5070645167 23.2180767085 -1.8075000000
509 1 3.0686813276 24.9757191285 0.0000000000
510 1 2.6302981385 26.7324148360 1.8075000000
511 1 2.1919149493 28.4884115029 3.6150000000
512 1 1.7535317602 30.2438847434 5.4225000000
513 1 1.3151485710 31.9989606892 7.2300000000
514 1 5.6989802632 21.8907024692 -5.4225000000
515 1 5.2605970740 23.6501829141 -3.6150000000
516 1 4.8222138849 25.4083976402 -1.8075000000
517 1 4.3838306958 27.1656437880 0.0000000000
518 1 3.9454475066 28.9221460992 1.8075000000
519 1 3.5070643175 30.6780732790 3.6150000000
520 1 3.0686811283 32.4335520719 5.4225000000
521 1 2.6302979392 34.1886781942 7.2300000000
522 1 7.0141296313 24.0835400641 -5.4225000000
523 1 6.5757464422 25.8420326430 -3.6150000000
524 1 6.1373632530 27.5996073160 -1.8075000000
525 1 5.6989800639 29.3564489253 0.0000000000
526 1 5.2605968748 31.1127051089 1.8075000000
527 1 4.8222136856 32.8684923699 3.6150000000
528 1 4.3838304965 34.6239022548 5.4225000000
529 1 3.9454473073 36.3790067267 7.2300000000
530 1 8.3292789995 26.2765785721 -5.4225000000
531 1 7.8908958103 28.0342976492 -3.6150000000
532 1 7.4525126212 29.7913319923 -1.8075000000
533 1 7.0141294320 31.5478017275 0.0000000000
534 1 6.5757462429 33.3038068093 1.8075000000
535 1 6.1373630538 35.0594292182 3.6150000000
536 1 5.6989798646 36.8147357099 5.4225000000
537 1 5.2605966755 38.5697804947 7.2300000000
538 1 9.6444283676 28.4696691880 -5.4225000000
539 1 9.2060451785 30.2267762588 -3.6150000000
540 1 8.7676619893 31.9833599917 -1.8075000000
541 1 8.3292788002 33.7395013879 0.0000000000
542 1 7.8908956111 35.4952700177 1.8075000000
543 1 7.4525124219 37.2507247137 3.6150000000
544 1 7.0141292328 39.0059147828 5.4225000000
545 1 6.5757460436 40.7608813528 7.2300000000
546 1 10.9595777358 30.6627419834 -5.4225000000
547 1 10.5211945466 32.4193586559 -3.6150000000
548 1 10.0828113575 34.1755669303 -1.8075000000
549 1 9.6444281683 35.9314231605 0.0000000000
550 1 9.2060449792 37.6869769834 1.8075000000
551 1 8.7676617901 39.4422714259 3.6150000000
552 1 8.3292786009 41.1973434130 5.4225000000
553 1 7.8908954118 42.9522244405 7.2300000000
554 1 12.2747271039 32.8557646749 -5.4225000000
555 1 11.8363439148 34.6119833763 -3.6150000000
556 1 11.3979607256 36.3678775988 -1.8075000000
557 1 10.9595775365 38.1234876122 0.0000000000
558 1 10.5211943474 39.8788496191 1.8075000000
559 1 10.0828111582 41.6339956470 3.6150000000
560 1 9.6444279691 43.3889537293 5.4225000000
561 1 9.2060447799 45.1437482338 7.2300000000
562 1 13.5898764721 35.0487237037 -5.4225000000
563 1 13.1514932829 36.8046155545 -3.6150000000
564 1 12.7131100938 38.5602455441 -1.8075000000
565 1 12.2747269046 40.3156431220 0.0000000000
566 1 11.8363437155 42.0708352141 1.8075000000
567 1 11.3979605264 43.8258460493 3.6150000000
568 1 10.9595773372 45.5806971923 5.4225000000
569 1 10.5211941481 47.3354076921 7.2300000000
570 1 14.9050258402 37.2416150213 -5.4225000000
571 1 14.4666426511 38.9972354579 -3.6150000000
572 1 14.0282594619 40.7526416558 -1.8075000000
573 1 13.5898762728 42.5078555908 0.0000000000
574 1 13.1514930836 44.2628976408 1.8075000000
575 1 12.7131098945 46.0177864090 3.6150000000
576 1 12.2747267054 47.7725386897 5.4225000000
577 1 11.8363435162 49.5271695258 7.2300000000
578 1 16.2201752084 39.4344394019 -5.4225000000
579 1 15.7817920192 41.1898321804 -3.6150000000
580 1 15.3434088301 42.9450475525 -1.8075000000
581 1 14.9050256409 44.7001022105 0.0000000000
582 1 14.4666424518 46.4550118197 1.8075000000
583 1 14.0282592627 48.2097908572 3.6150000000
584 1 13.5898760735 49.9644525547 5.4225000000
585 1 13.1514928844 51.7190089070 7.2300000000
586 1 17.5353245765 41.6271999862 -5.4225000000
587 1 17.0969413874 43.3824000531 -3.6150000000
588 1 16.6585581982 45.1374516284 -1.8075000000
589 1 16.2201750091 46.8923675925 0.0000000000
590 1 15.7817918199 48.6471601577 1.8075000000
591 1 15.3434086308 50.4018407305 3.6150000000
592 1 14.9050254417 52.1564198474 5.4225000000
593 1 14.4666422525 53.9109071618 7.2300000000
594 1 18.8504739447 43.8199009701 -5.4225000000
595 1 18.4120907555 45.5749365431 -3.6150000000
596 1 17.9737075664 47.3298466279 -1.8075000000
597 1 17.5353243772 49.0846413044 0.0000000000
598 1 17.0969411881 50.8393302141 1.8075000000
599 1 16.6585579990 52.5939224459 3.6150000000
600 1 16.2201748098 54.3484264745 5.4225000000
601 1 15.7817916207 56.1028501362 7.2300000000
602 1 20.1656233128 46.0125469017 -5.4225000000
603 1 19.7272401237 47.7674409968 -3.6150000000
604 1 19.2888569345 49.5222281241 -1.8075000000
605 1 18.8504737454 51.2769162720 0.0000000000
606 1 18.4120905562 53.0315131407 1.8075000000
607 1 17.9737073671 54.7860260476 3.6150000000
608 1 17.5353241780 56.5404618719 5.4225000000
609 1 17.0969409888 58.2948270271 7.2300000000
610 1 21.4807726810 48.2051423079 -5.4225000000
611 1 21.0423894918 49.9599138737 -3.6150000000
612 1 20.6040063027 51.7145935443 -1.8075000000
613 1 20.1656231135 53.4691877235 0.0000000000
614 1 19.7272399244 55.2237026254 1.8075000000
615 1 19.2888567352 56.9781441975 3.6150000000
616 1 18.8504735461 58.7325180718 5.4225000000
617 1 22.7959220491 50.3976915047 -5.4225000000
618 1 22.3575388600 52.1523562755 -3.6150000000
619 1 21.9191556708 53.9069415382 -1.8075000000
620 1 21.4807724817 55.6614524797 0.0000000000
621 1 21.0423892925 57.4158941633 1.8075000000
622 1 20.6040061034 59.1702714653 3.6150000000
623 1 24.1110714173 52.5901985082 -5.4225000000
624 1 23.6726882281 54.3447696528 -3.6150000000
625 1 23.2343050390 56.0992715604 -1.8075000000
626 1 22.7959218498 57.8537084722 0.0000000000
627 1 25.4262207854 54.7826670024 -5.4225000000
628 1 24.9878375963 56.5371556230 -3.6150000000
629 1 24.5494544071 58.2915835927 -1.8075000000
630 1 26.7413701536 56.9751003373 -5.4225000000
631 1 26.3029869644 58.7295158574 -3.6150000000
632 1 28.0565195217 59.1675015441 -5.4225000000
633 2 0.0000001993 7.8909122310 -5.4225000000
634 1 1.3151491689 9.5373850497 -5.4225000000
635 1 0.8767659797 11.3639732769 -3.6150000000
636 1 0.4383827906 13.1415339078 -1.8075000000