ITEM: TIMESTEP
0
ITEM: NUMBER OF ATOMS
3656
ITEM: BOX BOUNDS xy xz yz mm pp pp
-1.2522499999999999e+02 1.2522499999999999e+02 0.0000000000000000e+00
-1.4905042650000000e+01 1.4905042650000000e+01 0.0000000000000000e+00
-3.6150000000000002e+00 3.6150000000000002e+00 0.0000000000000000e+00
ITEM: ATOMS id type x y z c_eng c_csym
1 1 0.678442 13.2986 -3.16357 -3.4365 3.02178
2 1 -0.1209 7.70417 -1.95856 -2.87825 9.75756
3 1 1.00036 9.52295 -3.16357 -3.48315 5.28358
4 1 0.893837 11.3217 -1.35607 -3.51378 1.77267
5 1 0.678442 13.2986 0.451435 -3.4365 3.02178
6 1 2.66848 11.7883 -3.16357 -3.52049 0.268553
7 1 2.33623 13.5946 -1.35607 -3.5184 0.161515
8 1 4.03034 14.0335 -3.16357 -3.54769 0.0449556
9 1 0.920328 3.83853 -3.16357 -3.52189 2.23136
10 1 0.798205 5.68337 -1.35607 -3.23319 6.83642
11 1 -0.1209 7.70417 1.65644 -2.87825 9.75756
12 1 2.37902 6.11467 -3.16357 -3.50063 3.8548
13 1 1.96809 7.92683 -1.35607 -3.21271 7.76917
14 1 1.00036 9.52295 0.451435 -3.48315 5.28358
15 1 0.893837 11.3217 2.25893 -3.51378 1.77267
16 1 3.60415 8.36642 -3.16357 -3.4993 0.257907
17 1 3.10067 10.1015 -1.35607 -3.48203 0.304819
18 1 2.66848 11.7883 0.451435 -3.52049 0.268553
19 1 2.33623 13.5946 2.25893 -3.5184 0.161515
20 1 4.90031 10.5344 -3.16357 -3.5278 0.0101764
21 1 4.46856 12.2659 -1.35607 -3.53046 0.0156583
22 1 4.03034 14.0335 0.451435 -3.54769 0.0449556
23 1 6.22883 12.7172 -3.16357 -3.53881 0.00077515
24 1 5.79105 14.4668 -1.35607 -3.54366 0.00781497
25 1 0.810567 -1.77043 -3.16357 -3.23508 6.9047
26 1 -0.105743 0.255976 -0.151064 -2.87393 9.82746
27 1 1.98502 0.465178 -3.16357 -3.21525 7.79258
28 1 1.0024 2.06095 -1.35607 -3.47698 5.44557
29 1 0.920328 3.83853 0.451435 -3.52189 2.23136
30 1 0.798205 5.68337 2.25893 -3.23319 6.83642
31 1 3.14848 2.61526 -3.16357 -3.47307 0.322457
32 1 2.76492 4.26978 -1.35607 -3.49934 0.402552
33 1 2.37902 6.11467 0.451435 -3.50063 3.8548
34 1 1.96809 7.92683 2.25893 -3.21271 7.76917
35 1 4.51994 4.78554 -3.16357 -3.53361 0.0235749
36 1 4.07758 6.54168 -1.35607 -3.53594 0.0365019
37 1 3.60415 8.36642 0.451435 -3.4993 0.257907
38 1 3.10067 10.1015 2.25893 -3.48203 0.304819
39 1 5.79511 7.01668 -3.16357 -3.54432 0.00832662
40 1 5.33691 8.77876 -1.35607 -3.54221 0.0123248
41 1 4.90031 10.5344 0.451435 -3.5278 0.0101764
42 1 4.46856 12.2659 2.25893 -3.53046 0.0156583
43 1 7.10004 9.21407 -3.16357 -3.54093 0.00111295
44 1 6.66658 10.964 -1.35607 -3.53828 0.000361374
45 1 6.22883 12.7172 0.451435 -3.53881 0.00077515
46 1 5.79105 14.4668 2.25893 -3.54366 0.00781497
47 1 8.42718 11.4017 -3.16357 -3.54039 0.00013231
48 1 7.99272 13.1511 -1.35607 -3.54067 0.000600441
49 1 9.76043 13.5845 -3.16357 -3.54008 0.000143212
50 1 -0.104845 -7.20421 -1.95856 -2.86172 9.36267
51 1 0.974537 -5.38855 -3.16357 -3.46948 5.82675
52 1 0.937013 -3.61591 -1.35607 -3.52323 2.3469
53 1 0.810567 -1.77043 0.451435 -3.23508 6.9047
54 1 -0.105743 0.255976 3.46394 -2.87393 9.82746
55 1 2.78788 -3.16977 -3.16357 -3.4964 0.439004
56 1 2.39724 -1.34216 -1.35607 -3.50204 3.73125
57 1 1.98502 0.465178 0.451435 -3.21525 7.79258
58 1 1.0024 2.06095 2.25893 -3.47698 5.44557
59 1 4.10448 -0.908409 -3.16357 -3.5382 0.0324602
60 1 3.63581 0.898807 -1.35607 -3.50214 0.271339
61 1 3.14848 2.61526 0.451435 -3.47307 0.322457
62 1 2.76492 4.26978 2.25893 -3.49934 0.402552
63 1 5.38354 1.31208 -3.16357 -3.54258 0.00932683
64 1 4.96636 3.05185 -1.35607 -3.52355 0.0216034
65 1 4.51994 4.78554 0.451435 -3.53361 0.0235749
66 1 4.07758 6.54168 2.25893 -3.53594 0.0365019
67 1 6.71595 3.50035 -3.16357 -3.53789 0.00308916
68 1 6.26605 5.25422 -1.35607 -3.53758 0.00218419
69 1 5.79511 7.01668 0.451435 -3.54432 0.00832662
70 1 5.33691 8.77876 2.25893 -3.54221 0.0123248
71 1 8.00433 5.7096 -3.16357 -3.54079 0.000969171
72 1 7.54649 7.46402 -1.35607 -3.54159 0.00243287
73 1 7.10004 9.21407 0.451435 -3.54093 0.00111295
74 1 6.66658 10.964 2.25893 -3.53828 0.000361374
75 1 9.30618 7.90471 -3.16357 -3.5403 0.000568918
76 1 8.8648 9.65265 -1.35607 -3.53984 0.000130807
77 1 8.42718 11.4017 0.451435 -3.54039 0.00013231
78 1 7.99272 13.1511 2.25893 -3.54067 0.000600441
79 1 10.6273 10.0912 -3.16357 -3.54012 8.66319e-05
80 1 10.191 11.8384 -1.35607 -3.54046 0.000141165
81 1 9.76043 13.5845 0.451435 -3.54008 0.000143212
82 1 11.9556 12.2749 -3.16357 -3.54008 4.78528e-05
83 1 11.525 14.0214 -1.35607 -3.5397 0.000206465
84 1 13.2846 14.4609 -3.16357 -3.53985 0.000137768
85 1 0.995779 -10.9526 -3.16357 -3.48676 0.975023
86 1 0.815951 -9.20167 -1.35607 -3.24058 7.19709
87 1 -0.104845 -7.20421 1.65644 -2.86172 9.36267
88 1 2.41314 -8.72471 -3.16357 -3.5175 4.08757
89 1 1.98819 -6.94026 -1.35607 -3.2315 7.93519
90 1 0.974537 -5.38855 0.451435 -3.46948 5.82675
91 1 0.937013 -3.61591 2.25893 -3.52323 2.3469
92 1 3.65991 -6.50989 -3.16357 -3.50158 0.328689
93 1 3.18314 -4.80953 -1.35607 -3.46243 0.407556
94 1 2.78788 -3.16977 0.451435 -3.4964 0.439004
95 1 2.39724 -1.34216 2.25893 -3.50204 3.73125
96 1 5.00143 -4.37324 -3.16357 -3.5218 0.0276692
97 1 4.55217 -2.65066 -1.35607 -3.53293 0.0203706
98 1 4.10448 -0.908409 0.451435 -3.5382 0.0324602
99 1 3.63581 0.898807 2.25893 -3.50214 0.271339
100 1 6.30308 -2.18452 -3.16357 -3.53768 0.00290965
101 1 5.83429 -0.434188 -1.35607 -3.54489 0.00728771
102 1 5.38354 1.31208 0.451435 -3.54258 0.00932683
103 1 4.96636 3.05185 2.25893 -3.52355 0.0216034
104 1 7.59291 0.0114617 -3.16357 -3.54106 0.00134665
105 1 7.15307 1.75264 -1.35607 -3.53932 0.00102253
106 1 6.71595 3.50035 0.451435 -3.53789 0.00308916
107 1 6.26605 5.25422 2.25893 -3.53758 0.00218419
108 1 8.90842 2.20017 -3.16357 -3.53911 0.000702501
109 1 8.46061 3.95224 -1.35607 -3.53973 0.000460556
110 1 8.00433 5.7096 0.451435 -3.54079 0.000969171
111 1 7.54649 7.46402 2.25893 -3.54159 0.00243287
112 1 10.2062 4.40018 -3.16357 -3.54046 0.000240311
113 1 9.75409 6.15395 -1.35607 -3.54084 0.000732644
114 1 9.30618 7.90471 0.451435 -3.5403 0.000568918
115 1 8.8648 9.65265 2.25893 -3.53984 0.000130807
116 1 11.5099 6.59373 -3.16357 -3.54038 0.000318011
117 1 11.067 8.34316 -1.35607 -3.54007 0.000154901
118 1 10.6273 10.0912 0.451435 -3.54012 8.66319e-05
119 1 10.191 11.8384 2.25893 -3.54046 0.000141165
120 1 12.8274 8.78043 -3.16357 -3.54015 8.23629e-05
121 1 12.3898 10.5283 -1.35607 -3.5402 5.6206e-05
122 1 11.9556 12.2749 0.451435 -3.54008 4.78528e-05
123 1 11.525 14.0214 2.25893 -3.5397 0.000206465
124 1 14.1515 10.9649 -3.16357 -3.54008 2.73952e-05
125 1 13.7176 12.7125 -1.35607 -3.53992 6.61406e-05
126 1 13.2846 14.4609 0.451435 -3.53985 0.000137768
127 1 15.4764 13.1512 -3.16357 -3.53998 5.50307e-05
128 1 0.321367 -14.6875 -1.35607 -3.27735 8.89831
129 1 1.91335 -14.3094 -3.16357 -3.45931 0.474189
130 1 1.37644 -12.5496 -1.35607 -3.45173 0.517136
131 1 0.995779 -10.9526 0.451435 -3.48676 0.975023
132 1 0.815951 -9.20167 2.25893 -3.24058 7.19709
133 1 3.2307 -12.2106 -3.16357 -3.52082 0.0517266
134 1 2.87101 -10.5072 -1.35607 -3.51214 0.171504
135 1 2.41314 -8.72471 0.451435 -3.5175 4.08757
136 1 1.98819 -6.94026 2.25893 -3.2315 7.93519
137 1 4.58765 -10.0552 -3.16357 -3.53513 0.01379
138 1 4.13599 -8.2919 -1.35607 -3.53651 0.00405124
139 1 3.65991 -6.50989 0.451435 -3.50158 0.328689
140 1 3.18314 -4.80953 2.25893 -3.46243 0.407556
141 1 5.86265 -7.85564 -3.16357 -3.54308 0.0063095
142 1 5.42024 -6.10468 -1.35607 -3.53964 0.00845238
143 1 5.00143 -4.37324 0.451435 -3.5218 0.0276692
144 1 4.55217 -2.65066 2.25893 -3.53293 0.0203706
145 1 7.18511 -5.68347 -3.16357 -3.53859 0.00158672
146 1 6.75251 -3.93291 -1.35607 -3.53721 0.00468009
147 1 6.30308 -2.18452 0.451435 -3.53768 0.00290965
148 1 5.83429 -0.434188 2.25893 -3.54489 0.00728771
149 1 8.49511 -3.49371 -3.16357 -3.53955 0.000711223
150 1 8.04495 -1.73653 -1.35607 -3.54058 0.00141923
151 1 7.59291 0.0114617 0.451435 -3.54106 0.00134665
152 1 7.15307 1.75264 2.25893 -3.53932 0.00102253
153 1 9.79369 -1.29958 -3.16357 -3.5405 0.000417882
154 1 9.35119 0.451553 -1.35607 -3.5394 0.000390242
155 1 8.90842 2.20017 0.451435 -3.53911 0.000702501
156 1 8.46061 3.95224 2.25893 -3.53973 0.000460556
157 1 11.1023 0.891175 -3.16357 -3.53954 0.000222681
158 1 10.6568 2.64549 -1.35607 -3.53965 0.000207744
159 1 10.2062 4.40018 0.451435 -3.54046 0.000240311
160 1 9.75409 6.15395 2.25893 -3.54084 0.000732644
161 1 12.4043 3.0869 -3.16357 -3.54017 0.000117831
162 1 11.9565 4.8417 -1.35607 -3.54043 0.000287812
163 1 11.5099 6.59373 0.451435 -3.54038 0.000318011
164 1 11.067 8.34316 2.25893 -3.54007 0.000154901
165 1 13.71 5.27935 -3.16357 -3.54031 0.000177501
166 1 13.2676 7.031 -1.35607 -3.54019 0.000138292
167 1 12.8274 8.78043 0.451435 -3.54015 8.23629e-05
168 1 12.3898 10.5283 2.25893 -3.5402 5.6206e-05
169 1 15.0254 7.46691 -3.16357 -3.54018 6.61961e-05
170 1 14.5874 9.21667 -1.35607 -3.54016 4.21172e-05
171 1 14.1515 10.9649 0.451435 -3.54008 2.73952e-05
172 1 13.7176 12.7125 2.25893 -3.53992 6.61406e-05
173 1 16.3466 9.65262 -3.16357 -3.54012 1.95829e-05
174 1 15.9112 11.402 -1.35607 -3.54003 3.02498e-05
175 1 15.4764 13.1512 0.451435 -3.53998 5.50307e-05
176 1 17.6687 11.8395 -3.16357 -3.54006 2.63469e-05
177 1 17.2329 13.5902 -1.35607 -3.54009 2.86623e-05
178 1 18.988 14.0291 -3.16357 -3.54015 1.3966e-05
179 1 0.321367 -14.6875 2.25893 -3.27735 8.89831
180 1 1.91335 -14.3094 0.451435 -3.45931 0.474189
181 1 1.37644 -12.5496 2.25893 -3.45173 0.517135
182 1 3.61436 -13.978 -1.35607 -3.54556 0.0482477
183 1 3.2307 -12.2106 0.451435 -3.52082 0.0517266
184 1 2.87101 -10.5072 2.25893 -3.51214 0.171504
185 1 5.38324 -13.5916 -3.16357 -3.54326 0.00915969
186 1 5.00545 -11.8326 -1.35607 -3.53321 0.0225443
187 1 4.58765 -10.0552 0.451435 -3.53513 0.01379
188 1 4.13599 -8.2919 2.25893 -3.53651 0.00405124
189 1 6.74112 -11.4052 -3.16357 -3.53959 0.00508267
190 1 6.31159 -9.63056 -1.35607 -3.54008 0.00117001
191 1 5.86265 -7.85564 0.451435 -3.54308 0.0063095
192 1 5.42024 -6.10468 2.25893 -3.53964 0.00845238
193 1 8.04597 -9.20101 -3.16357 -3.54204 0.00110544
194 1 7.61203 -7.43761 -1.35607 -3.54157 0.00104067
195 1 7.18511 -5.68347 0.451435 -3.53859 0.00158672
196 1 6.75251 -3.93291 2.25893 -3.53721 0.00468009
197 1 9.36442 -7.01152 -3.16357 -3.54011 0.000213118
198 1 8.93398 -5.25271 -1.35607 -3.53936 0.000714642
199 1 8.49511 -3.49371 0.451435 -3.53955 0.000711223
200 1 8.04495 -1.73653 2.25893 -3.54058 0.00141923
201 1 10.6783 -4.81747 -3.16357 -3.54009 0.00014467
202 1 10.2375 -3.05672 -1.35607 -3.54056 0.00015148
203 1 9.79369 -1.29958 0.451435 -3.5405 0.000417882
204 1 9.35119 0.451553 2.25893 -3.5394 0.000390242
205 1 11.9839 -2.62118 -3.16357 -3.54051 3.74171e-05
206 1 11.5437 -0.863917 -1.35607 -3.54006 6.52231e-05
207 1 11.1023 0.891175 0.451435 -3.53954 0.000222681
208 1 10.6568 2.64549 2.25893 -3.53965 0.000207744
209 1 13.2923 -0.426991 -3.16357 -3.54003 2.54339e-05
210 1 12.85 1.33031 -1.35607 -3.53995 5.82696e-05
211 1 12.4043 3.0869 0.451434 -3.54017 0.000117831
212 1 11.9565 4.8417 2.25893 -3.54043 0.000287812
213 1 14.598 1.76846 -3.16357 -3.54024 3.34297e-05
214 1 14.1541 3.52501 -1.35607 -3.54033 0.000116948
215 1 13.71 5.27935 0.451435 -3.54031 0.000177501
216 1 13.2676 7.031 2.25893 -3.54019 0.000138292
217 1 15.9061 3.96137 -3.16357 -3.54033 7.99802e-05
218 1 15.4651 5.7152 -1.35607 -3.54026 8.6036e-05
219 1 15.0254 7.46691 0.451435 -3.54018 6.61961e-05
220 1 14.5874 9.21667 2.25893 -3.54016 4.21172e-05
221 1 17.2208 6.15046 -3.16357 -3.54025 3.69435e-05
222 1 16.7831 7.90227 -1.35607 -3.54019 2.64792e-05
223 1 16.3466 9.65262 0.451435 -3.54012 1.95829e-05
224 1 15.9112 11.402 2.25893 -3.54003 3.02498e-05
225 1 18.5402 8.33779 -3.16357 -3.54018 8.87781e-06
226 1 18.1043 10.0889 -1.35607 -3.54011 1.42271e-05
227 1 17.6687 11.8395 0.451435 -3.54006 2.63469e-05
228 1 17.2329 13.5902 2.25893 -3.54009 2.86623e-05
229 1 19.8606 10.5257 -3.16357 -3.54013 1.14243e-05
230 1 19.4245 12.2774 -1.35607 -3.54013 1.62811e-05
231 1 18.988 14.0291 0.451434 -3.54015 1.3966e-05
232 1 21.1792 12.7154 -3.16357 -3.54017 9.08788e-06
233 1 20.7422 14.4679 -1.35607 -3.54018 8.03916e-06
234 1 3.61436 -13.978 2.25893 -3.54556 0.0482477
235 1 5.38324 -13.5916 0.451435 -3.54326 0.00915969
236 1 5.00545 -11.8326 2.25893 -3.53321 0.0225443
237 1 7.56734 14.8963 -3.16357 -3.53971 0.000787507
238 1 7.15546 -13.168 -1.35607 -3.53845 0.00524824
239 1 6.74112 -11.4052 0.451435 -3.53959 0.00508267
240 1 6.31159 -9.63056 2.25893 -3.54008 0.00117001
241 1 8.91138 -12.7283 -3.16357 -3.53925 0.00151036
242 1 8.48135 -10.9683 -1.35607 -3.54075 0.000951419
243 1 8.04597 -9.20101 0.451435 -3.54204 0.00110544
244 1 7.61203 -7.43761 2.25893 -3.54157 0.00104067
245 1 10.2279 -10.5294 -3.16357 -3.54095 0.000266663
246 1 9.7941 -8.77034 -1.35607 -3.54115 0.000340416
247 1 9.36442 -7.01152 0.451435 -3.54011 0.000213118
248 1 8.93398 -5.25271 2.25893 -3.53936 0.000714642
249 1 11.5462 -8.33518 -3.16357 -3.5403 0.000120523
250 1 11.1136 -6.57754 -1.35607 -3.54002 0.000224425
251 1 10.6783 -4.81747 0.451435 -3.54009 0.00014467
252 1 10.2375 -3.05672 2.25893 -3.54056 0.00015148
253 1 12.8616 -6.13953 -3.16357 -3.5402 9.2348e-05
254 1 12.4236 -4.38042 -1.35607 -3.54046 3.97186e-05
255 1 11.9839 -2.62118 0.451435 -3.54051 3.74171e-05
256 1 11.5437 -0.863917 2.25893 -3.54006 6.52231e-05
257 1 14.1714 -3.94254 -3.16357 -3.5404 2.2108e-05
258 1 13.7322 -2.18465 -1.35607 -3.54028 8.2637e-06
259 1 13.2923 -0.426991 0.451435 -3.54003 2.54339e-05
260 1 12.85 1.33031 2.25893 -3.53995 5.82696e-05
261 1 15.4811 -1.74672 -3.16357 -3.5402 1.0375e-05
262 1 15.0404 0.0108673 -1.35607 -3.54017 9.56261e-06
263 1 14.598 1.76846 0.451434 -3.54024 3.34297e-05
264 1 14.1541 3.52501 2.25893 -3.54033 0.000116948
265 1 16.7895 0.448897 -3.16357 -3.54028 1.5733e-05
266 1 16.3479 2.20567 -1.35607 -3.54034 4.43829e-05
267 1 15.9061 3.96137 0.451434 -3.54033 7.99802e-05
268 1 15.4651 5.7152 2.25893 -3.54026 8.6036e-05
269 1 18.0997 2.64236 -3.16357 -3.54034 3.85931e-05
270 1 17.6598 4.39709 -1.35607 -3.54031 4.3682e-05
271 1 17.2208 6.15046 0.451434 -3.54025 3.69435e-05
272 1 16.7831 7.90227 2.25893 -3.54019 2.64792e-05
273 1 19.4145 4.83281 -3.16357 -3.54028 2.0341e-05
274 1 18.9768 6.58581 -1.35607 -3.54024 1.27811e-05
275 1 18.5402 8.33779 0.451434 -3.54018 8.87781e-06
276 1 18.1043 10.0889 2.25893 -3.54011 1.42271e-05
277 1 20.7328 7.02162 -3.16357 -3.54022 3.62572e-06
278 1 20.2965 8.77386 -1.35607 -3.54017 4.87527e-06
279 1 19.8606 10.5257 0.451434 -3.54013 1.14243e-05
280 1 19.4245 12.2774 2.25893 -3.54013 1.62811e-05
281 1 22.052 9.21058 -3.16357 -3.54018 4.47463e-06
282 1 21.6158 10.963 -1.35607 -3.54016 7.90888e-06
283 1 21.1792 12.7154 0.451434 -3.54017 9.08788e-06
284 1 20.7422 14.4679 2.25893 -3.54018 8.03916e-06
285 1 23.3702 11.4007 -3.16357 -3.54019 5.16954e-06
286 1 22.9332 13.1536 -1.35607 -3.54019 5.4215e-06
287 1 24.6867 13.592 -3.16357 -3.5402 3.55371e-06
288 1 7.56734 14.8963 0.451435 -3.53971 0.000787507
289 1 7.15546 -13.168 2.25893 -3.53845 0.00524824
290 1 9.33604 -14.4795 -1.35607 -3.53894 0.00080609
291 1 8.91138 -12.7283 0.451435 -3.53925 0.00151036
292 1 8.48135 -10.9683 2.25893 -3.54075 0.000951419
293 1 11.0953 -14.0398 -3.16357 -3.53957 0.000408874
294 1 10.663 -12.2866 -1.35607 -3.54007 0.000241651
295 1 10.2279 -10.5294 0.451435 -3.54095 0.000266663
296 1 9.7941 -8.77034 2.25893 -3.54115 0.000340416
297 1 12.4152 -11.8455 -3.16357 -3.54039 3.88086e-05
298 1 11.9797 -10.0909 -1.35607 -3.54053 7.1182e-05
299 1 11.5462 -8.33518 0.451435 -3.5403 0.000120523
300 1 11.1136 -6.57754 2.25893 -3.54002 0.000224425
301 1 13.7329 -9.65157 -3.16357 -3.54022 3.25132e-05
302 1 13.2977 -7.89664 -1.35607 -3.54011 8.54241e-05
303 1 12.8616 -6.13953 0.451435 -3.5402 9.2348e-05
304 1 12.4236 -4.38042 2.25893 -3.54046 3.97186e-05
305 1 15.0484 -7.45651 -3.16357 -3.54017 3.78974e-05
306 1 14.6103 -5.70011 -1.35607 -3.54031 3.1268e-05
307 1 14.1714 -3.94254 0.451435 -3.5404 2.2108e-05
308 1 13.7322 -2.18465 2.25893 -3.54028 8.2637e-06
309 1 16.3601 -5.2603 -3.16357 -3.54029 1.28063e-05
310 1 15.9208 -3.50383 -1.35607 -3.54028 1.24797e-05
311 1 15.4811 -1.74672 0.451434 -3.5402 1.0375e-05
312 1 15.0404 0.0108673 2.25893 -3.54017 9.56261e-06
313 1 17.6708 -3.06453 -3.16357 -3.54022 7.74501e-06
314 1 17.2306 -1.30804 -1.35607 -3.54023 8.74191e-06
315 1 16.7895 0.448897 0.451434 -3.54028 1.5733e-05
316 1 16.3479 2.20567 2.25893 -3.54034 4.43829e-05
317 1 18.981 -0.869277 -3.16357 -3.54027 1.07952e-05
318 1 18.5403 0.886707 -1.35607 -3.54032 2.3398e-05
319 1 18.0997 2.64236 0.451434 -3.54034 3.85931e-05
320 1 17.6598 4.39709 2.25893 -3.54031 4.3682e-05
321 1 20.2926 1.32426 -3.16357 -3.54031 2.14879e-05
322 1 19.8531 3.07889 -1.35607 -3.54031 2.48158e-05
323 1 19.4145 4.83281 0.451434 -3.54028 2.0341e-05
324 1 18.9768 6.58581 2.25893 -3.54024 1.27811e-05
325 1 21.6074 3.5155 -3.16357 -3.54028 1.27376e-05
326 1 21.1696 5.26885 -1.35607 -3.54025 7.69633e-06
327 1 20.7328 7.02162 0.451434 -3.54022 3.62572e-06
328 1 20.2965 8.77386 2.25893 -3.54017 4.87527e-06
329 1 22.9249 5.70534 -3.16357 -3.54023 2.43607e-06
330 1 22.4883 7.45806 -1.35607 -3.5402 1.89752e-06
331 1 22.052 9.21058 0.451434 -3.54018 4.47463e-06
332 1 21.6158 10.963 2.25893 -3.54016 7.90888e-06
333 1 24.2434 7.8951 -3.16357 -3.5402 2.10316e-06
334 1 23.8068 9.64788 -1.35607 -3.54019 3.91853e-06
335 1 23.3702 11.4007 0.451434 -3.54019 5.16954e-06
336 1 22.9332 13.1536 2.25893 -3.54019 5.4215e-06
337 1 25.5611 10.0856 -3.16357 -3.5402 3.11649e-06
338 1 25.1241 11.8388 -1.35607 -3.5402 3.50845e-06
339 1 24.6867 13.592 0.451434 -3.5402 3.55371e-06
340 1 26.8776 12.2771 -3.16357 -3.54021 2.47064e-06
341 1 26.4399 14.0306 -1.35607 -3.54021 2.36624e-06
342 1 28.1928 14.4692 -3.16357 -3.54021 1.47562e-06
343 1 9.33604 -14.4795 2.25893 -3.53894 0.00080609
344 1 11.0953 -14.0398 0.451435 -3.53957 0.000408874
345 1 10.663 -12.2866 2.25893 -3.54007 0.000241651
346 1 12.8507 -13.5986 -1.35607 -3.54005 9.89675e-05
347 1 12.4152 -11.8455 0.451435 -3.54039 3.88086e-05
348 1 11.9797 -10.0909 2.25893 -3.54053 7.1182e-05
349 1 14.6052 -13.1575 -3.16357 -3.54023 1.80783e-05
350 1 14.1688 -11.4051 -1.35607 -3.54031 1.19731e-05
351 1 13.7329 -9.65157 0.451435 -3.54022 3.25132e-05
352 1 13.2977 -7.89664 2.25893 -3.54011 8.54241e-05
353 1 15.9225 -10.9646 -3.16357 -3.5402 1.07177e-05
354 1 15.4856 -9.21128 -1.35607 -3.54014 2.66306e-05
355 1 15.0484 -7.45651 0.451435 -3.54017 3.78974e-05
356 1 14.6103 -5.70011 2.25893 -3.54031 3.1268e-05
357 1 17.2378 -8.77057 -3.16357 -3.54017 1.38298e-05
358 1 16.7992 -7.01596 -1.35607 -3.54023 1.29461e-05
359 1 16.3601 -5.2603 0.451434 -3.54029 1.28063e-05
360 1 15.9208 -3.50383 2.25893 -3.54028 1.24797e-05
361 1 18.5503 -6.57549 -3.16357 -3.54023 4.61389e-06
362 1 18.1107 -4.82035 -1.35607 -3.54024 5.91337e-06
363 1 17.6708 -3.06453 0.451434 -3.54022 7.74501e-06
364 1 17.2306 -1.30804 2.25893 -3.54023 8.74191e-06
365 1 19.8618 -4.38043 -3.16357 -3.54022 2.98683e-06
366 1 19.4215 -2.62508 -1.35607 -3.54023 5.27015e-06
367 1 18.981 -0.869277 0.451434 -3.54027 1.07952e-05
368 1 18.5403 0.886707 2.25893 -3.54032 2.3398e-05
369 1 21.173 -2.18584 -3.16357 -3.54025 5.85883e-06
370 1 20.7326 -0.430757 -1.35607 -3.54028 1.30539e-05
371 1 20.2926 1.32426 0.451434 -3.54031 2.14879e-05
372 1 19.8531 3.07889 2.25893 -3.54031 2.48158e-05
373 1 22.4854 0.00744367 -3.16357 -3.54028 1.17682e-05
374 1 22.046 1.76165 -1.35607 -3.54028 1.45381e-05
375 1 21.6074 3.5155 0.451434 -3.54028 1.27376e-05
376 1 21.1696 5.26885 2.25893 -3.54025 7.69633e-06
377 1 23.8002 2.19901 -3.16357 -3.54026 7.78914e-06
378 1 23.3622 3.95233 -1.35607 -3.54025 5.22316e-06
379 1 22.9249 5.70534 0.451434 -3.54023 2.43607e-06
380 1 22.4883 7.45806 2.25893 -3.5402 1.89752e-06
381 1 25.1171 4.38946 -3.16357 -3.54023 1.7379e-06
382 1 24.6801 6.14232 -1.35607 -3.54021 1.12819e-06
383 1 24.2434 7.8951 0.451434 -3.5402 2.10316e-06
384 1 23.8068 9.64788 2.25893 -3.54019 3.91853e-06
385 1 26.4349 6.57975 -3.16357 -3.54021 1.1166e-06
386 1 25.998 8.33265 -1.35607 -3.5402 2.18301e-06
387 1 25.5611 10.0856 0.451434 -3.5402 3.11649e-06
388 1 25.1241 11.8388 2.25893 -3.5402 3.50845e-06
389 1 27.7522 8.77057 -3.16357 -3.5402 1.93653e-06
390 1 27.315 10.5237 -1.35607 -3.54021 2.37034e-06
391 1 26.8776 12.2771 0.451434 -3.54021 2.47064e-06
392 1 26.4399 14.0306 2.25893 -3.54021 2.36624e-06
393 1 29.0686 10.9621 -3.16357 -3.54021 1.73615e-06
394 1 28.6308 12.7156 -1.35607 -3.54021 1.68687e-06
395 1 28.1928 14.4692 0.451434 -3.54021 1.47562e-06
396 1 30.3839 13.1542 -3.16357 -3.54021 1.06952e-06
397 1 12.8507 -13.5986 2.25893 -3.54005 9.89675e-05
398 1 15.0412 14.9012 -1.35607 -3.54006 4.90492e-05
399 1 14.6052 -13.1575 0.451435 -3.54023 1.80783e-05
400 1 14.1688 -11.4051 2.25893 -3.54031 1.19731e-05
401 1 16.7964 -14.4688 -3.16357 -3.54016 1.62775e-05
402 1 16.3595 -12.717 -1.35607 -3.54022 7.1655e-06
403 1 15.9225 -10.9646 0.451435 -3.5402 1.07177e-05
404 1 15.4856 -9.21128 2.25893 -3.54014 2.66306e-05
405 1 18.1135 -12.2769 -3.16357 -3.54018 7.42158e-06
406 1 17.6758 -10.5241 -1.35607 -3.54016 1.05758e-05
407 1 17.2378 -8.77057 0.451435 -3.54017 1.38298e-05
408 1 16.7992 -7.01596 2.25893 -3.54023 1.29461e-05
409 1 19.4285 -10.0837 -3.16357 -3.54017 6.71177e-06
410 1 18.9896 -8.32995 -1.35607 -3.5402 5.33924e-06
411 1 18.5503 -6.57549 0.451434 -3.54023 4.61389e-06
412 1 18.1107 -4.82035 2.25893 -3.54024 5.91337e-06
413 1 20.7415 -7.88962 -3.16357 -3.54021 2.04356e-06
414 1 20.3018 -6.13526 -1.35607 -3.54022 1.87875e-06
415 1 19.8618 -4.38043 0.451434 -3.54022 2.98683e-06
416 1 19.4215 -2.62508 2.25893 -3.54023 5.27015e-06
417 1 22.0535 -5.69534 -3.16357 -3.54021 1.00802e-06
418 1 21.6133 -3.94073 -1.35607 -3.54022 2.26923e-06
419 1 21.173 -2.18584 0.451434 -3.54025 5.85883e-06
420 1 20.7326 -0.430757 2.25893 -3.54028 1.30539e-05
421 1 23.3654 -3.50142 -3.16357 -3.54023 3.05443e-06
422 1 22.9253 -1.74697 -1.35607 -3.54026 6.91739e-06
423 1 22.4854 0.00744367 0.451434 -3.54028 1.17682e-05
424 1 22.046 1.76165 2.25893 -3.54028 1.45381e-05
425 1 24.6783 -1.30848 -3.16357 -3.54025 6.44816e-06
426 1 24.2389 0.44539 -1.35607 -3.54026 8.23338e-06
427 1 23.8002 2.19901 0.451434 -3.54026 7.78914e-06
428 1 23.3622 3.95233 2.25893 -3.54025 5.22316e-06
429 1 25.993 0.883188 -3.16357 -3.54025 4.62522e-06
430 1 25.5548 2.63643 -1.35607 -3.54024 3.3292e-06
431 1 25.1171 4.38946 0.451434 -3.54023 1.7379e-06
432 1 24.6801 6.14232 2.25893 -3.54021 1.12819e-06
433 1 27.3094 3.07398 -3.16357 -3.54022 1.13729e-06
434 1 26.872 4.82689 -1.35607 -3.54021 6.70768e-07
435 1 26.4349 6.57975 0.451434 -3.54021 1.1166e-06
436 1 25.998 8.33265 2.25893 -3.5402 2.18301e-06
437 1 28.6266 5.26461 -3.16357 -3.54021 5.62858e-07
438 1 28.1894 7.01754 -1.35607 -3.5402 1.21039e-06
439 1 27.7522 8.77057 0.451434 -3.5402 1.93653e-06
440 1 27.315 10.5237 2.25893 -3.54021 2.37034e-06
441 1 29.9436 7.4556 -3.16357 -3.54021 1.15497e-06
442 1 29.5061 9.20876 -1.35607 -3.54021 1.5625e-06
443 1 29.0686 10.9621 0.451434 -3.54021 1.73615e-06
444 1 28.6308 12.7156 2.25893 -3.54021 1.68687e-06
445 1 31.2598 9.64715 -3.16357 -3.54021 1.17398e-06
446 1 30.8219 11.4006 -1.35607 -3.54021 1.19752e-06
447 1 30.3839 13.1542 0.451434 -3.54021 1.06952e-06
448 1 32.5751 11.8392 -3.16357 -3.54021 7.6187e-07
449 1 32.1369 13.5929 -1.35607 -3.54021 6.0595e-07
450 1 33.8898 14.0316 -3.16357 -3.54022 2.97534e-07
451 1 15.0412 14.9012 2.25893 -3.54006 4.90492e-05
452 1 16.7964 -14.4688 0.451435 -3.54016 1.62775e-05
453 1 16.3595 -12.717 2.25893 -3.54022 7.1655e-06
454 1 18.5509 -14.0291 -1.35607 -3.54018 8.94264e-06
455 1 18.1135 -12.2769 0.451435 -3.54018 7.42158e-06
456 1 17.6758 -10.5241 2.25893 -3.54016 1.05758e-05
457 1 20.3047 -13.5897 -3.16357 -3.54018 6.97671e-06
458 1 19.8668 -11.8369 -1.35607 -3.54017 6.88821e-06
459 1 19.4285 -10.0837 0.451434 -3.54017 6.71177e-06
460 1 18.9896 -8.32995 2.25893 -3.5402 5.33924e-06
461 1 21.6196 -11.3971 -3.16357 -3.54018 4.69897e-06
462 1 21.1808 -9.64354 -1.35607 -3.54019 3.36701e-06
463 1 20.7415 -7.88962 0.451434 -3.54021 2.04356e-06
464 1 20.3018 -6.13526 2.25893 -3.54022 1.87875e-06
465 1 22.9329 -9.2037 -3.16357 -3.5402 1.5931e-06
466 1 22.4934 -7.44965 -1.35607 -3.54021 9.25009e-07
467 1 22.0535 -5.69534 0.451434 -3.54021 1.00802e-06
468 1 21.6133 -3.94073 2.25893 -3.54022 2.26923e-06
469 1 24.2454 -7.01004 -3.16357 -3.54021 6.29269e-07
470 1 23.8055 -5.25579 -1.35607 -3.54022 1.16854e-06
471 1 23.3654 -3.50142 0.451434 -3.54023 3.05443e-06
472 1 22.9253 -1.74697 2.25893 -3.54026 6.91739e-06
473 1 25.5578 -4.81665 -3.16357 -3.54023 1.84617e-06
474 1 25.118 -3.06252 -1.35607 -3.54024 3.85379e-06
475 1 24.6783 -1.30848 0.451434 -3.54025 6.44816e-06
476 1 24.2389 0.44539 2.25893 -3.54026 8.23338e-06
477 1 26.8711 -2.624 -3.16357 -3.54024 3.74207e-06
478 1 26.4318 -0.870294 -1.35607 -3.54025 4.74634e-06
479 1 25.993 0.883188 0.451434 -3.54025 4.62522e-06
480 1 25.5548 2.63643 2.25893 -3.54024 3.3292e-06
481 1 28.1858 -0.432301 -3.16357 -3.54024 2.83402e-06
482 1 27.7474 1.32094 -1.35607 -3.54023 2.0983e-06
483 1 27.3094 3.07398 0.451434 -3.54022 1.13729e-06
484 1 26.872 4.82689 2.25893 -3.54021 6.70768e-07
485 1 29.5018 1.75872 -3.16357 -3.54022 7.6797e-07
486 1 29.0641 3.5117 -1.35607 -3.54021 3.93894e-07
487 1 28.6266 5.26461 0.451434 -3.54021 5.62858e-07
488 1 28.1894 7.01754 2.25893 -3.5402 1.21039e-06
489 1 30.8185 3.94957 -3.16357 -3.54021 2.88239e-07
490 1 30.381 5.70256 -1.35607 -3.54021 6.45244e-07
491 1 29.9436 7.4556 0.451434 -3.54021 1.15497e-06
492 1 29.5061 9.20876 2.25893 -3.54021 1.5625e-06
493 1 32.1351 6.14069 -3.16357 -3.54021 6.71655e-07
494 1 31.6975 7.89386 -1.35607 -3.54021 9.84903e-07
495 1 31.2598 9.64715 0.451434 -3.54021 1.17398e-06
496 1 30.8219 11.4006 2.25893 -3.54021 1.19752e-06
497 1 33.4511 8.33225 -3.16357 -3.54021 7.70398e-07
498 1 33.0132 10.0857 -1.35607 -3.54021 8.23077e-07
499 1 32.5751 11.8392 0.451434 -3.54021 7.6187e-07
500 1 32.1369 13.5929 2.25893 -3.54021 6.0595e-07
501 1 34.7665 10.5242 -3.16357 -3.54021 5.26667e-07
502 1 34.3282 12.2779 -1.35607 -3.54021 4.3001e-07
503 1 33.8898 14.0316 0.451434 -3.54022 2.97534e-07
504 1 36.0813 12.7165 -3.16357 -3.54022 2.11307e-07
505 1 35.6427 14.4703 -1.35607 -3.54022 1.25573e-07
506 1 18.5509 -14.0291 2.25893 -3.54018 8.94264e-06
507 1 20.3047 -13.5897 0.451434 -3.54018 6.97671e-06
508 1 19.8668 -11.8369 2.25893 -3.54017 6.88821e-06
509 1 22.4958 -14.9035 -3.16357 -3.54019 5.31589e-06
510 1 22.058 -13.1504 -1.35607 -3.54018 5.20901e-06
511 1 21.6196 -11.3971 0.451434 -3.54018 4.69897e-06
512 1 21.1808 -9.64354 2.25893 -3.54019 3.36701e-06
513 1 23.8108 -12.7112 -3.16357 -3.54019 3.2818e-06
514 1 23.3721 -10.9575 -1.35607 -3.54019 2.57379e-06
515 1 22.9329 -9.2037 0.451434 -3.5402 1.5931e-06
516 1 22.4934 -7.44965 2.25893 -3.54021 9.25009e-07
517 1 25.1244 -10.5182 -3.16357 -3.5402 1.22576e-06
518 1 24.6851 -8.76417 -1.35607 -3.54021 7.66115e-07
519 1 24.2454 -7.01004 0.451434 -3.54021 6.29269e-07
520 1 23.8055 -5.25579 2.25893 -3.54022 1.16854e-06
521 1 26.4373 -8.32494 -3.16357 -3.54021 4.77916e-07
522 1 25.9977 -6.5708 -1.35607 -3.54022 8.12924e-07
523 1 25.5578 -4.81665 0.451434 -3.54023 1.84617e-06
524 1 25.118 -3.06252 2.25893 -3.54024 3.85379e-06
525 1 27.7502 -6.1319 -3.16357 -3.54022 1.20259e-06
526 1 27.3106 -4.37789 -1.35607 -3.54023 2.34635e-06
527 1 26.8711 -2.624 0.451434 -3.54024 3.74207e-06
528 1 26.4318 -0.870294 2.25893 -3.54025 4.74634e-06
529 1 29.0637 -3.93943 -3.16357 -3.54023 2.2828e-06
530 1 28.6246 -2.18576 -1.35607 -3.54024 2.87449e-06
531 1 28.1858 -0.432301 0.451434 -3.54024 2.83402e-06
532 1 27.7474 1.32094 2.25893 -3.54023 2.0983e-06
533 1 30.3784 -1.7477 -3.16357 -3.54023 1.79754e-06
534 1 29.9399 0.00560233 -1.35607 -3.54023 1.38276e-06
535 1 29.5018 1.75872 0.451434 -3.54022 7.6797e-07
536 1 29.0641 3.5117 2.25893 -3.54021 3.93894e-07
537 1 31.6941 0.443495 -3.16357 -3.54022 5.48719e-07
538 1 31.2562 2.19658 -1.35607 -3.54021 2.64477e-07
539 1 30.8185 3.94957 0.451434 -3.54021 2.88239e-07
540 1 30.381 5.70256 2.25893 -3.54021 6.45244e-07
541 1 33.0104 2.63454 -3.16357 -3.54021 1.63676e-07
542 1 32.5727 4.3876 -1.35607 -3.54021 3.48834e-07
543 1 32.1351 6.14069 0.451434 -3.54021 6.71655e-07
544 1 31.6975 7.89386 2.25893 -3.54021 9.84903e-07
545 1 34.3267 4.82577 -3.16357 -3.54021 3.93305e-07
546 1 33.8889 6.57897 -1.35607 -3.54021 6.10419e-07
547 1 33.4511 8.33225 0.451434 -3.54021 7.70398e-07
548 1 33.0132 10.0857 2.25893 -3.54021 8.23077e-07
549 1 35.6426 7.01734 -3.16357 -3.54021 4.97466e-07
550 1 35.2046 8.77074 -1.35607 -3.54021 5.5244e-07
551 1 34.7665 10.5242 0.451434 -3.54021 5.26667e-07
552 1 34.3282 12.2779 2.25893 -3.54021 4.3001e-07
553 1 36.958 9.20927 -3.16357 -3.54021 3.61966e-07
554 1 36.5197 10.9628 -1.35607 -3.54021 3.01134e-07
555 1 36.0813 12.7165 0.451434 -3.54022 2.11307e-07
556 1 35.6427 14.4703 2.25893 -3.54022 1.25573e-07
557 1 38.2728 11.4014 -3.16357 -3.54022 1.49341e-07
558 1 37.8343 13.1552 -1.35607 -3.54022 8.91798e-08
559 1 39.5874 13.5937 -3.16357 -3.54022 3.65671e-08
560 1 22.4958 -14.9035 0.451434 -3.54019 5.31589e-06
561 1 22.058 -13.1504 2.25893 -3.54018 5.20901e-06
562 1 24.249 -14.4647 -1.35607 -3.5402 3.52585e-06
563 1 23.8108 -12.7112 0.451434 -3.54019 3.2818e-06
564 1 23.3721 -10.9575 2.25893 -3.54019 2.57379e-06
565 1 26.0018 -14.0259 -3.16357 -3.5402 2.14494e-06
566 1 25.5633 -12.2721 -1.35607 -3.5402 1.7512e-06
567 1 25.1244 -10.5182 0.451434 -3.5402 1.22576e-06
568 1 24.6851 -8.76417 2.25893 -3.54021 7.66115e-07
569 1 27.3158 -11.8331 -3.16357 -3.54021 8.03887e-07
570 1 26.8767 -10.079 -1.35607 -3.54021 5.32814e-07
571 1 26.4373 -8.32494 0.451434 -3.54021 4.77916e-07
572 1 25.9977 -6.5708 2.25893 -3.54022 8.12924e-07
573 1 28.6291 -9.64009 -3.16357 -3.54022 2.90562e-07
574 1 28.1897 -7.88598 -1.35607 -3.54022 5.41957e-07
575 1 27.7502 -6.1319 0.451434 -3.54022 1.20259e-06
576 1 27.3106 -4.37789 2.25893 -3.54023 2.34635e-06
577 1 29.9424 -7.44726 -3.16357 -3.54023 7.49845e-07
578 1 29.503 -5.69328 -1.35607 -3.54023 1.45609e-06
579 1 29.0637 -3.93943 0.451434 -3.54023 2.2828e-06
580 1 28.6246 -2.18576 2.25893 -3.54024 2.87449e-06