ITEM: TIMESTEP
0
ITEM: NUMBER OF ATOMS
3656
ITEM: BOX BOUNDS xy xz yz mm pp pp
-1.2522499999999999e+02 1.2522499999999999e+02 0.0000000000000000e+00
-1.4905042650000000e+01 1.4905042650000000e+01 0.0000000000000000e+00
-3.6150000000000002e+00 3.6150000000000002e+00 0.0000000000000000e+00
ITEM: ATOMS id type x y z c_eng c_csym
1 1 0.671432 13.3458 -3.16191 -3.45059 2.96769
2 1 0.084411 7.71955 -2.55941 -2.89006 9.73784
3 1 1.17779 9.70842 -3.16191 -3.44098 1.64134
4 1 0.947288 11.4192 -1.35441 -3.49859 1.07618
5 1 0.671432 13.3458 0.453089 -3.45059 2.96769
6 1 2.72165 11.9082 -3.16191 -3.53176 0.120274
7 1 2.34822 13.6869 -1.35441 -3.52543 0.113309
8 1 4.04948 14.1429 -3.16191 -3.54734 0.0245728
9 1 0.960533 3.95129 -3.16191 -3.50428 1.2154
10 1 0.731313 5.81192 -1.35441 -3.33469 4.04708
11 1 0.084411 7.71955 1.05559 -2.89006 9.73784
12 1 2.36962 6.22064 -3.16191 -3.53205 0.461153
13 1 1.93085 8.05147 -1.35441 -3.31943 1.77566
14 1 1.17779 9.70842 0.453089 -3.44098 1.64134
15 1 0.947288 11.4192 2.26059 -3.49859 1.07618
16 1 3.61057 8.46491 -3.16191 -3.52537 0.0929991
17 1 3.15452 10.2046 -1.35441 -3.50583 0.117299
18 1 2.72165 11.9082 0.453089 -3.53176 0.120274
19 1 2.34822 13.6869 2.26059 -3.52543 0.113309
20 1 4.93374 10.635 -3.16191 -3.53241 0.00410178
21 1 4.5006 12.377 -1.35441 -3.53303 0.00827828
22 1 4.04948 14.1429 0.453089 -3.54734 0.0245728
23 1 6.24973 12.8266 -3.16191 -3.53986 0.000728478
24 1 5.80611 14.579 -1.35441 -3.54314 0.00459626
25 1 0.737494 -1.64123 -3.16191 -3.33512 3.99839
26 1 0.0919893 0.26919 -0.751911 -2.88161 9.75171
27 1 1.93931 0.594388 -3.16191 -3.32041 1.75907
28 1 1.17881 2.25116 -1.35441 -3.43734 1.72281
29 1 0.960533 3.95129 0.453089 -3.50428 1.2154
30 1 0.731313 5.81192 2.26059 -3.33469 4.04708
31 1 3.17843 2.7352 -3.16191 -3.50321 0.12386
32 1 2.76987 4.42272 -1.35441 -3.52317 0.162345
33 1 2.36962 6.22064 0.453089 -3.53205 0.461153
34 1 1.93085 8.05147 2.26059 -3.31943 1.77566
35 1 4.52629 4.9106 -3.16191 -3.53429 0.0103721
36 1 4.0731 6.67072 -1.35441 -3.54032 0.0151346
37 1 3.61057 8.46491 0.453089 -3.52537 0.0929991
38 1 3.15452 10.2046 2.26059 -3.50583 0.117299
39 1 5.80814 7.12766 -3.16191 -3.54354 0.00455989
40 1 5.36295 8.88211 -1.35441 -3.54149 0.00356971
41 1 4.93374 10.635 0.453089 -3.53241 0.00410178
42 1 4.5006 12.377 2.26059 -3.53303 0.00827828
43 1 7.12522 9.31806 -3.16191 -3.54013 0.000198949
44 1 6.69122 11.0699 -1.35441 -3.53885 0.000460478
45 1 6.24973 12.8266 0.453089 -3.53986 0.000728478
46 1 5.80611 14.579 2.26059 -3.54314 0.00459626
47 1 8.44504 11.5098 -3.16191 -3.54055 8.76436e-05
48 1 8.00658 13.2622 -1.35441 -3.54094 0.000532148
49 1 9.76826 13.6971 -3.16191 -3.54025 6.98969e-05
50 1 0.0924387 -7.18717 -2.55941 -2.87686 9.77063
51 1 1.16488 -5.19985 -3.16191 -3.43296 1.87088
52 1 0.968875 -3.50219 -1.35441 -3.50483 1.25564
53 1 0.737494 -1.64123 0.453089 -3.33512 3.99839
54 1 0.0919893 0.26919 2.86309 -2.88161 9.75171
55 1 2.78134 -3.02332 -3.16191 -3.5225 0.174159
56 1 2.37873 -1.23404 -1.35441 -3.53247 0.465652
57 1 1.93931 0.594388 0.453089 -3.32041 1.75907
58 1 1.17881 2.25116 2.26059 -3.43734 1.72281
59 1 4.08655 -0.780591 -3.16191 -3.54111 0.0149892
60 1 3.62641 1.00485 -1.35441 -3.5265 0.098931
61 1 3.17843 2.7352 0.453089 -3.50321 0.12386
62 1 2.76987 4.42272 2.26059 -3.52317 0.162345
63 1 5.38626 1.42251 -3.16191 -3.54133 0.00306826
64 1 4.96677 3.16747 -1.35441 -3.5302 0.0100161
65 1 4.52629 4.9106 0.453089 -3.53429 0.0103721
66 1 4.0731 6.67072 2.26059 -3.54032 0.0151346
67 1 6.7159 3.61178 -3.16191 -3.5386 0.00175768
68 1 6.26833 5.36886 -1.35441 -3.53929 0.000718272
69 1 5.80814 7.12766 0.453089 -3.54354 0.00455989
70 1 5.36295 8.88211 2.26059 -3.54149 0.00356971
71 1 8.01239 5.81521 -3.16191 -3.54098 0.000632834
72 1 7.56473 7.56829 -1.35441 -3.54084 0.000812925
73 1 7.12522 9.31806 0.453089 -3.54013 0.000198949
74 1 6.69122 11.0699 2.26059 -3.53885 0.000460478
75 1 9.3232 8.00695 -3.16191 -3.54005 7.88502e-05
76 1 8.88424 9.75744 -1.35441 -3.53979 2.82458e-05
77 1 8.44504 11.5098 0.453089 -3.54055 8.76436e-05
78 1 8.00658 13.2622 2.26059 -3.54094 0.000532148
79 1 10.6411 10.1967 -3.16191 -3.54022 2.10392e-05
80 1 10.2028 11.9475 -1.35441 -3.54056 9.48144e-05
81 1 9.76826 13.6971 0.453089 -3.54025 6.98969e-05
82 1 11.9621 12.3846 -3.16191 -3.54021 1.86044e-05
83 1 11.5281 14.1343 -1.35441 -3.53991 7.73186e-05
84 1 13.2848 14.5733 -3.16191 -3.53999 4.97841e-05
85 1 0.998259 -10.8968 -3.16191 -3.48556 0.753452
86 1 0.740187 -9.08311 -1.35441 -3.33949 3.7903
87 1 0.0924387 -7.18717 1.05559 -2.87686 9.77063
88 1 2.38668 -8.65158 -3.16191 -3.53884 0.435978
89 1 1.9409 -6.83459 -1.35441 -3.32848 1.73834
90 1 1.16488 -5.19985 0.453089 -3.43296 1.87088
91 1 0.968875 -3.50219 2.26059 -3.50483 1.25564
92 1 3.63846 -6.42576 -3.16191 -3.52615 0.114327
93 1 3.19575 -4.70346 -1.35441 -3.49965 0.152637
94 1 2.78134 -3.02332 0.453089 -3.5225 0.174159
95 1 2.37873 -1.23404 2.26059 -3.53247 0.465652
96 1 4.9843 -4.27134 -3.16191 -3.52918 0.0120201
97 1 4.5424 -2.53376 -1.35441 -3.53386 0.00970556
98 1 4.08655 -0.780591 0.453089 -3.54111 0.0149892
99 1 3.62641 1.00485 2.26059 -3.5265 0.098931
100 1 6.28685 -2.07677 -3.16191 -3.53935 0.00107747
101 1 5.82773 -0.32404 -1.35441 -3.54374 0.00445274
102 1 5.38626 1.42251 0.453089 -3.54133 0.00306826
103 1 4.96677 3.16747 2.26059 -3.5302 0.0100161
104 1 7.58794 0.115753 -3.16191 -3.54056 0.000568254
105 1 7.15173 1.86109 -1.35441 -3.53928 0.000796345
106 1 6.7159 3.61178 0.453089 -3.5386 0.00175768
107 1 6.26833 5.36886 2.26059 -3.53929 0.000718272
108 1 8.90605 2.30494 -3.16191 -3.53939 0.000384644
109 1 8.46175 4.05874 -1.35441 -3.54019 0.000154157
110 1 8.01239 5.81521 0.453089 -3.54098 0.000632834
111 1 7.56473 7.56829 2.26059 -3.54084 0.000812925
112 1 10.2104 4.5021 -3.16191 -3.54054 0.000125211
113 1 9.76509 6.25553 -1.35441 -3.54062 0.000250875
114 1 9.3232 8.00695 0.453089 -3.54005 7.88502e-05
115 1 8.88424 9.75744 2.26059 -3.53979 2.82458e-05
116 1 11.5206 6.69418 -3.16191 -3.54024 6.09824e-05
117 1 11.0804 8.44552 -1.35441 -3.54005 1.44662e-05
118 1 10.6411 10.1967 0.453089 -3.54022 2.10392e-05
119 1 10.2028 11.9475 2.26059 -3.54056 9.48144e-05
120 1 12.8369 8.88363 -3.16191 -3.5402 1.70112e-05
121 1 12.3986 10.6345 -1.35441 -3.5403 2.41693e-05
122 1 11.9621 12.3846 0.453089 -3.54021 1.86044e-05
123 1 11.5281 14.1343 2.26059 -3.53991 7.73186e-05
124 1 14.1562 11.0719 -3.16191 -3.54019 8.3213e-06
125 1 13.7202 12.8224 -1.35441 -3.54006 2.10558e-05
126 1 13.2848 14.5733 0.453089 -3.53999 4.97841e-05
127 1 15.4764 13.2609 -3.16191 -3.54008 1.74396e-05
128 1 0.305545 -14.6551 -1.35441 -3.28475 8.99257
129 1 1.90348 -14.2454 -3.16191 -3.46688 0.488464
130 1 1.36583 -12.5067 -1.35441 -3.44846 0.525544
131 1 0.998259 -10.8968 0.453089 -3.48556 0.753452
132 1 0.740187 -9.08311 2.26059 -3.33949 3.7903
133 1 3.21953 -12.1303 -3.16191 -3.5201 0.0407156
134 1 2.82291 -10.4183 -1.35441 -3.52375 0.0814566
135 1 2.38668 -8.65158 0.453089 -3.53884 0.435978
136 1 1.9409 -6.83459 2.26059 -3.32848 1.73834
137 1 4.56014 -9.96227 -3.16191 -3.5359 0.00788958
138 1 4.1023 -8.1986 -1.35441 -3.53972 0.00558113
139 1 3.63846 -6.42576 0.453089 -3.52615 0.114327
140 1 3.19575 -4.70346 2.26059 -3.49965 0.152637
141 1 5.84191 -7.76103 -3.16191 -3.54305 0.0042365
142 1 5.40461 -6.01213 -1.35441 -3.53972 0.00242368
143 1 4.9843 -4.27134 0.453089 -3.52918 0.0120201
144 1 4.5424 -2.53376 2.26059 -3.53386 0.00970556
145 1 7.16775 -5.58323 -3.16191 -3.53892 0.000918148
146 1 6.73419 -3.83111 -1.35441 -3.5383 0.00208411
147 1 6.28685 -2.07677 0.453089 -3.53935 0.00107747
148 1 5.82773 -0.32404 2.26059 -3.54374 0.00445274
149 1 8.479 -3.39049 -3.16191 -3.54012 0.000196091
150 1 8.0327 -1.63411 -1.35441 -3.54088 0.000736544
151 1 7.58794 0.115753 0.453089 -3.54056 0.000568254
152 1 7.15173 1.86109 2.26059 -3.53928 0.000796345
153 1 9.7849 -1.1975 -3.16191 -3.54045 0.000149082
154 1 9.34571 0.55411 -1.35441 -3.53958 0.000167186
155 1 8.90605 2.30494 0.453089 -3.53939 0.000384644
156 1 8.46175 4.05874 2.26059 -3.54019 0.000154157
157 1 11.0981 0.993265 -3.16191 -3.53977 9.29828e-05
158 1 10.6558 2.74756 -1.35441 -3.53997 6.49104e-05
159 1 10.2104 4.5021 0.453089 -3.54054 0.000125211
160 1 9.76509 6.25553 2.26059 -3.54062 0.000250875
161 1 12.4058 3.18758 -3.16191 -3.54028 4.26884e-05
162 1 11.9626 4.94171 -1.35441 -3.54038 9.32016e-05
163 1 11.5206 6.69418 0.453089 -3.54024 6.09824e-05
164 1 11.0804 8.44552 2.26059 -3.54005 1.44662e-05
165 1 13.7164 5.37952 -3.16191 -3.54025 4.06794e-05
166 1 13.2762 7.13202 -1.35441 -3.54017 2.36144e-05
167 1 12.8369 8.88363 0.453089 -3.5402 1.70112e-05
168 1 12.3986 10.6345 2.26059 -3.5403 2.41693e-05
169 1 15.0318 7.56927 -3.16191 -3.5402 1.45442e-05
170 1 14.5934 9.32101 -1.35441 -3.54023 1.24729e-05
171 1 14.1562 11.0719 0.453089 -3.54019 8.3213e-06
172 1 13.7202 12.8224 2.26059 -3.54006 2.10558e-05
173 1 16.3497 9.75813 -3.16191 -3.54019 5.32007e-06
174 1 15.9129 11.5095 -1.35441 -3.54012 8.38223e-06
175 1 15.4764 13.2609 0.453089 -3.54008 1.74396e-05
176 1 17.6684 11.9475 -3.16191 -3.54014 7.47878e-06
177 1 17.2314 13.6996 -1.35441 -3.54015 7.83283e-06
178 1 18.9856 14.1382 -3.16191 -3.54019 3.31568e-06
179 1 0.305544 -14.6551 2.26059 -3.28475 8.99257
180 1 1.90348 -14.2454 0.453089 -3.46688 0.488464
181 1 1.36583 -12.5067 2.26059 -3.44846 0.525544
182 1 3.61568 -13.8861 -1.35441 -3.54545 0.0364136
183 1 3.21953 -12.1303 0.453089 -3.5201 0.0407156
184 1 2.82291 -10.4183 2.26059 -3.52375 0.0814566
185 1 5.38611 -13.4818 -3.16191 -3.54191 0.0039359
186 1 4.98631 -11.7273 -1.35441 -3.53531 0.0110896
187 1 4.56014 -9.96227 0.453089 -3.5359 0.00788958
188 1 4.1023 -8.1986 2.26059 -3.53972 0.00558113
189 1 6.72849 -11.2935 -3.16191 -3.53955 0.0024274
190 1 6.2911 -9.52605 -1.35441 -3.54055 0.000721816
191 1 5.84191 -7.76103 0.453089 -3.54305 0.0042365
192 1 5.40461 -6.01213 2.26059 -3.53972 0.00242368
193 1 8.03321 -9.09261 -3.16191 -3.54164 0.000683335
194 1 7.5975 -7.33504 -1.35441 -3.54083 0.000462527
195 1 7.16775 -5.58323 0.453089 -3.53892 0.000918148
196 1 6.73419 -3.83111 2.26059 -3.5383 0.00208411
197 1 9.35233 -6.90368 -3.16191 -3.53993 0.00012454
198 1 8.91883 -5.14776 -1.35441 -3.53953 0.000384432
199 1 8.479 -3.39049 0.453089 -3.54012 0.000196091
200 1 8.0327 -1.63411 2.26059 -3.54088 0.000736544
201 1 10.6665 -4.71018 -3.16191 -3.5402 4.65587e-05
202 1 10.2261 -2.95261 -1.35441 -3.54061 8.2649e-05
203 1 9.7849 -1.1975 0.453089 -3.54045 0.000149082
204 1 9.34571 0.55411 2.26059 -3.53958 0.000167186
205 1 11.9763 -2.51599 -3.16191 -3.54042 1.73135e-05
206 1 11.5375 -0.760906 -1.35441 -3.54007 2.21421e-05
207 1 11.0981 0.993265 0.453089 -3.53977 9.29828e-05
208 1 10.6558 2.74756 2.26059 -3.53997 6.49104e-05
209 1 13.2886 -0.323232 -3.16191 -3.54008 1.2317e-05
210 1 12.8482 1.4323 -1.35441 -3.54009 1.79792e-05
211 1 12.4058 3.18758 0.453089 -3.54028 4.26884e-05
212 1 11.9626 4.94171 2.26059 -3.54038 9.32016e-05
213 1 14.5987 1.87065 -3.16191 -3.54027 1.14077e-05
214 1 14.1575 3.6257 -1.35441 -3.54031 3.56683e-05
215 1 13.7164 5.37952 0.453089 -3.54025 4.06794e-05
216 1 13.2762 7.13202 2.26059 -3.54017 2.36144e-05
217 1 15.9104 4.06297 -3.16191 -3.54028 1.94812e-05
218 1 15.4708 5.81661 -1.35441 -3.54022 1.77325e-05
219 1 15.0318 7.56927 0.453089 -3.5402 1.45442e-05
220 1 14.5934 9.32101 2.26059 -3.54023 1.24729e-05
221 1 17.2253 6.25346 -3.16191 -3.54023 8.36314e-06
222 1 16.7872 8.00617 -1.35441 -3.54022 7.03073e-06
223 1 16.3497 9.75813 0.453089 -3.54019 5.32007e-06
224 1 15.9129 11.5095 2.26059 -3.54012 8.38223e-06
225 1 18.5425 8.4431 -3.16191 -3.54021 2.36926e-06
226 1 18.1054 10.1954 -1.35441 -3.54017 3.71456e-06
227 1 17.6684 11.9475 0.453089 -3.54014 7.47878e-06
228 1 17.2314 13.6996 2.26059 -3.54015 7.83283e-06
229 1 19.8603 10.633 -3.16191 -3.54017 3.0674e-06
230 1 19.4231 12.3856 -1.35441 -3.54017 4.30893e-06
231 1 18.9856 14.1382 0.453089 -3.54019 3.31568e-06
232 1 21.1771 12.8238 -3.16191 -3.5402 2.23487e-06
233 1 20.7394 14.5768 -1.35441 -3.5402 1.86911e-06
234 1 3.61568 -13.8861 2.26059 -3.54545 0.0364136
235 1 5.38611 -13.4818 0.453089 -3.54191 0.0039359
236 1 4.98631 -11.7273 2.26059 -3.53531 0.0110896
237 1 7.57515 -14.7994 -3.16191 -3.53992 0.000364954
238 1 7.15293 -13.0518 -1.35441 -3.53892 0.00232954
239 1 6.72849 -11.2935 0.453089 -3.53955 0.0024274
240 1 6.2911 -9.52605 2.26059 -3.54055 0.000721816
241 1 8.90752 -12.6118 -3.16191 -3.53949 0.000652727
242 1 8.47212 -10.8541 -1.35441 -3.54073 0.000315033
243 1 8.03321 -9.09261 0.453089 -3.54164 0.000683335
244 1 7.5975 -7.33504 2.26059 -3.54083 0.000462527
245 1 10.2213 -10.4152 -3.16191 -3.54079 0.000114279
246 1 9.7851 -8.65914 -1.35441 -3.54077 0.000127941
247 1 9.35233 -6.90368 0.453089 -3.53993 0.00012454
248 1 8.91883 -5.14776 2.26059 -3.53953 0.000384432
249 1 11.5387 -8.2228 -3.16191 -3.54019 4.09206e-05
250 1 11.1037 -6.46735 -1.35441 -3.54001 9.96405e-05
251 1 10.6665 -4.71018 0.453089 -3.5402 4.65587e-05
252 1 10.2261 -2.95261 2.26059 -3.54061 8.2649e-05
253 1 12.854 -6.02887 -3.16191 -3.54022 2.72359e-05
254 1 12.4155 -4.27234 -1.35441 -3.54043 1.39905e-05
255 1 11.9763 -2.51599 0.453089 -3.54042 1.73135e-05
256 1 11.5375 -0.760906 2.26059 -3.54007 2.21421e-05
257 1 14.1662 -3.83433 -3.16191 -3.54034 6.28399e-06
258 1 13.7275 -2.07874 -1.35441 -3.54023 2.3245e-06
259 1 13.2886 -0.323232 0.453089 -3.54008 1.2317e-05
260 1 12.8482 1.4323 2.26059 -3.54009 1.79792e-05
261 1 15.4788 -1.64061 -3.16191 -3.54019 3.41664e-06
262 1 15.0393 0.11499 -1.35441 -3.54019 3.23573e-06
263 1 14.5987 1.87065 0.453089 -3.54027 1.14077e-05
264 1 14.1575 3.6257 2.26059 -3.54031 3.56683e-05
265 1 16.7904 0.553226 -3.16191 -3.54026 4.71432e-06
266 1 16.3504 2.3084 -1.35441 -3.5403 1.30476e-05
267 1 15.9104 4.06297 0.453089 -3.54028 1.94812e-05
268 1 15.4708 5.81661 2.26059 -3.54022 1.77325e-05
269 1 18.1031 2.74588 -3.16191 -3.54028 9.68591e-06
270 1 17.664 4.5 -1.35441 -3.54026 9.76934e-06
271 1 17.2253 6.25346 0.453089 -3.54023 8.36314e-06
272 1 16.7872 8.00617 2.26059 -3.54022 7.03073e-06
273 1 19.418 4.93705 -3.16191 -3.54025 4.74563e-06
274 1 18.98 6.69033 -1.35441 -3.54023 3.26853e-06
275 1 18.5425 8.4431 0.453089 -3.54021 2.36926e-06
276 1 18.1054 10.1954 2.26059 -3.54017 3.71456e-06
277 1 20.7347 7.12742 -3.16191 -3.54022 9.60337e-07
278 1 20.2974 8.8803 -1.35441 -3.5402 1.24915e-06
279 1 19.8603 10.633 0.453089 -3.54017 3.0674e-06
280 1 19.4231 12.3856 2.26059 -3.54017 4.30893e-06
281 1 22.0519 9.31783 -3.16191 -3.5402 1.16982e-06
282 1 21.6146 11.0708 -1.35441 -3.54019 2.06031e-06
283 1 21.1771 12.8238 0.453089 -3.5402 2.23487e-06
284 1 20.7394 14.5768 2.26059 -3.5402 1.86911e-06
285 1 23.3685 11.5089 -3.16191 -3.5402 1.288e-06
286 1 22.9308 13.2621 -1.35441 -3.54021 1.30633e-06
287 1 24.6843 13.7005 -3.16191 -3.54021 8.74584e-07
288 1 7.57515 -14.7994 0.453089 -3.53992 0.000364954
289 1 7.15293 -13.0518 2.26059 -3.53892 0.00232954
290 1 9.33814 -14.3639 -1.35441 -3.53937 0.000350876
291 1 8.90752 -12.6118 0.453089 -3.53949 0.000652727
292 1 8.47212 -10.8541 2.26059 -3.54073 0.000315033
293 1 11.0946 -13.9247 -3.16191 -3.53979 0.000166447
294 1 10.6589 -12.171 -1.35441 -3.54018 7.07915e-05
295 1 10.2213 -10.4152 0.453089 -3.54079 0.000114279
296 1 9.7851 -8.65914 2.26059 -3.54077 0.000127941
297 1 12.4113 -11.7312 -3.16191 -3.54038 1.11078e-05
298 1 11.9742 -9.97711 -1.35441 -3.54043 2.35491e-05
299 1 11.5387 -8.2228 0.453089 -3.54019 4.09206e-05
300 1 11.1037 -6.46735 2.26059 -3.54001 9.96405e-05
301 1 13.7279 -9.53846 -3.16191 -3.5402 9.74806e-06
302 1 13.2913 -7.78432 -1.35441 -3.54012 3.10046e-05
303 1 12.854 -6.02887 0.453089 -3.54022 2.72359e-05
304 1 12.4155 -4.27234 2.26059 -3.54043 1.39905e-05
305 1 15.0433 -7.34496 -3.16191 -3.54019 1.09589e-05
306 1 14.6049 -5.5899 -1.35441 -3.5403 7.69258e-06
307 1 14.1662 -3.83433 0.453089 -3.54034 6.28399e-06
308 1 13.7275 -2.07874 2.26059 -3.54023 2.3245e-06
309 1 16.3565 -5.15085 -3.16191 -3.54027 3.03593e-06
310 1 15.9177 -3.39589 -1.35441 -3.54025 2.98851e-06
311 1 15.4788 -1.64061 0.453089 -3.54019 3.41664e-06
312 1 15.0393 0.11499 2.26059 -3.54019 3.23573e-06
313 1 17.6695 -2.95707 -3.16191 -3.54021 2.00931e-06
314 1 17.2302 -1.20205 -1.35441 -3.54022 2.32783e-06
315 1 16.7904 0.553226 0.453089 -3.54026 4.71432e-06
316 1 16.3504 2.3084 2.26059 -3.5403 1.30476e-05
317 1 18.9821 -0.763471 -3.16191 -3.54025 2.89302e-06
318 1 18.5425 0.9913 -1.35441 -3.54028 6.4441e-06
319 1 18.1031 2.74588 0.453089 -3.54028 9.68591e-06
320 1 17.664 4.5 2.26059 -3.54026 9.76934e-06
321 1 20.2954 1.42924 -3.16191 -3.54027 5.44585e-06
322 1 19.8565 3.18332 -1.35441 -3.54026 5.88746e-06
323 1 19.418 4.93705 0.453089 -3.54025 4.74563e-06
324 1 18.98 6.69033 2.26059 -3.54023 3.26853e-06
325 1 21.6104 3.6208 -3.16191 -3.54025 3.06193e-06
326 1 21.1723 5.37425 -1.35441 -3.54024 1.92611e-06
327 1 20.7347 7.12742 0.453089 -3.54022 9.60337e-07
328 1 20.2974 8.8803 2.26059 -3.5402 1.24915e-06
329 1 22.9267 5.81168 -3.16191 -3.54023 6.27698e-07
330 1 22.4892 7.56481 -1.35441 -3.54021 4.82714e-07
331 1 22.0519 9.31783 0.453089 -3.5402 1.16982e-06
332 1 21.6146 11.0708 2.26059 -3.54019 2.06031e-06
333 1 24.2435 8.0025 -3.16191 -3.54021 5.37515e-07
334 1 23.806 9.75566 -1.35441 -3.5402 1.00731e-06
335 1 23.3685 11.5089 0.453089 -3.5402 1.288e-06
336 1 22.9308 13.2621 2.26059 -3.54021 1.30633e-06
337 1 25.5599 10.1937 -3.16191 -3.54021 7.7993e-07
338 1 25.1222 11.9471 -1.35441 -3.54021 8.61785e-07
339 1 24.6843 13.7005 0.453089 -3.54021 8.74584e-07
340 1 26.8756 12.3854 -3.16191 -3.54021 6.11931e-07
341 1 26.4376 14.1389 -1.35441 -3.54021 5.94601e-07
342 1 28.1908 14.5774 -3.16191 -3.54021 3.71521e-07
343 1 9.33814 -14.3639 2.26059 -3.53937 0.000350876
344 1 11.0946 -13.9247 0.453089 -3.53979 0.000166447
345 1 10.6589 -12.171 2.26059 -3.54018 7.07915e-05
346 1 12.8485 -13.4847 -1.35441 -3.54014 2.90469e-05
347 1 12.4113 -11.7312 0.453089 -3.54038 1.11078e-05
348 1 11.9742 -9.97711 2.26059 -3.54043 2.35491e-05
349 1 14.6023 -13.0449 -3.16191 -3.54026 3.14577e-06
350 1 14.1648 -11.2919 -1.35441 -3.5403 2.7165e-06
351 1 13.7279 -9.53846 0.453089 -3.5402 9.74806e-06
352 1 13.2913 -7.78432 2.26059 -3.54012 3.10046e-05
353 1 15.9186 -10.8526 -3.16191 -3.54021 2.90072e-06
354 1 15.4811 -9.09915 -1.35441 -3.54016 8.95285e-06
355 1 15.0433 -7.34496 0.453089 -3.54019 1.09589e-05
356 1 14.6049 -5.5899 2.26059 -3.5403 7.69258e-06
357 1 17.2338 -8.65958 -3.16191 -3.54019 4.0044e-06
358 1 16.7953 -6.90546 -1.35441 -3.54023 3.054e-06
359 1 16.3565 -5.15085 0.453089 -3.54027 3.03593e-06
360 1 15.9177 -3.39589 2.26059 -3.54025 2.98851e-06
361 1 18.5475 -6.46606 -3.16191 -3.54023 1.01985e-06
362 1 18.1086 -4.71173 -1.35441 -3.54023 1.39374e-06
363 1 17.6695 -2.95707 0.453089 -3.54021 2.00931e-06
364 1 17.2302 -1.20205 2.26059 -3.54022 2.32783e-06
365 1 19.8609 -4.2726 -3.16191 -3.54022 7.36976e-07
366 1 19.4216 -2.51816 -1.35441 -3.54022 1.31643e-06
367 1 18.9821 -0.763471 0.453089 -3.54025 2.89302e-06
368 1 18.5425 0.9913 2.26059 -3.54028 6.4441e-06
369 1 21.174 -2.07935 -3.16191 -3.54023 1.50873e-06
370 1 20.7346 -0.325035 -1.35441 -3.54025 3.45005e-06
371 1 20.2954 1.42924 0.453089 -3.54027 5.44585e-06
372 1 19.8565 3.18332 2.26059 -3.54026 5.88746e-06
373 1 22.4877 0.113237 -3.16191 -3.54025 2.98215e-06
374 1 22.0489 1.86711 -1.35441 -3.54025 3.54975e-06
375 1 21.6104 3.6208 0.453089 -3.54025 3.06193e-06
376 1 21.1723 5.37425 2.26059 -3.54024 1.92611e-06
377 1 23.8027 2.30497 -3.16191 -3.54024 1.9055e-06
378 1 23.3645 4.0584 -1.35441 -3.54023 1.29916e-06
379 1 22.9267 5.81168 0.453089 -3.54023 6.27698e-07
380 1 22.4892 7.56481 2.26059 -3.54021 4.82714e-07
381 1 25.1187 4.49614 -3.16191 -3.54022 4.40372e-07
382 1 24.681 6.24934 -1.35441 -3.54022 2.84986e-07
383 1 24.2435 8.0025 0.453089 -3.54021 5.37515e-07
384 1 23.806 9.75566 2.26059 -3.5402 1.00731e-06
385 1 26.4351 6.68723 -3.16191 -3.54021 2.82473e-07
386 1 25.9975 8.44045 -1.35441 -3.54021 5.5523e-07
387 1 25.5599 10.1937 0.453089 -3.54021 7.7993e-07
388 1 25.1222 11.9471 2.26059 -3.54021 8.61785e-07
389 1 27.7513 8.87859 -3.16191 -3.54021 4.84654e-07
390 1 27.3135 10.6319 -1.35441 -3.54021 5.87322e-07
391 1 26.8756 12.3854 0.453089 -3.54021 6.11931e-07
392 1 26.4376 14.1389 2.26059 -3.54021 5.94601e-07
393 1 29.067 11.0703 -3.16191 -3.54021 4.3195e-07
394 1 28.629 12.8238 -1.35441 -3.54021 4.22366e-07
395 1 28.1908 14.5774 0.453089 -3.54021 3.71521e-07
396 1 30.3822 13.2623 -3.16191 -3.54021 2.68206e-07
397 1 12.8485 -13.4847 2.26059 -3.54014 2.90469e-05
398 1 15.0397 -14.7974 -1.35441 -3.54014 1.40079e-05
399 1 14.6023 -13.0449 0.453089 -3.54026 3.14577e-06
400 1 14.1648 -11.2919 2.26059 -3.5403 2.7165e-06
401 1 16.7939 -14.3581 -3.16191 -3.5402 3.44936e-06
402 1 16.3562 -12.6055 -1.35441 -3.54024 1.12575e-06
403 1 15.9186 -10.8526 0.453089 -3.54021 2.90072e-06
404 1 15.4811 -9.09915 2.26059 -3.54016 8.95285e-06
405 1 18.11 -12.1663 -3.16191 -3.5402 1.83143e-06
406 1 17.672 -10.4131 -1.35441 -3.54018 3.2555e-06
407 1 17.2338 -8.65958 0.453089 -3.54019 4.0044e-06
408 1 16.7953 -6.90546 2.26059 -3.54023 3.054e-06
409 1 19.425 -9.97373 -3.16191 -3.54019 1.87756e-06
410 1 18.9864 -8.22007 -1.35441 -3.54021 1.28665e-06
411 1 18.5475 -6.46606 0.453089 -3.54023 1.01985e-06
412 1 18.1086 -4.71173 2.26059 -3.54023 1.39374e-06
413 1 20.739 -7.78073 -3.16191 -3.54021 4.54907e-07
414 1 20.3 -6.02678 -1.35441 -3.54022 4.33352e-07
415 1 19.8609 -4.2726 0.453089 -3.54022 7.36976e-07
416 1 19.4216 -2.51816 2.26059 -3.54022 1.31643e-06
417 1 22.0526 -5.58765 -3.16191 -3.54021 2.42624e-07
418 1 21.6133 -3.83357 -1.35441 -3.54022 5.53584e-07
419 1 21.174 -2.07935 0.453089 -3.54023 1.50873e-06
420 1 20.7346 -0.325035 2.26059 -3.54025 3.45005e-06
421 1 23.3661 -3.39474 -3.16191 -3.54023 7.71289e-07
422 1 22.9268 -1.64074 -1.35441 -3.54024 1.78586e-06
423 1 22.4877 0.113237 0.453089 -3.54025 2.98215e-06
424 1 22.0489 1.86711 2.26059 -3.54025 3.54975e-06
425 1 24.6801 -1.20232 -3.16191 -3.54024 1.63111e-06
426 1 24.2412 0.551385 -1.35441 -3.54024 2.0373e-06
427 1 23.8027 2.30497 0.453089 -3.54024 1.9055e-06
428 1 23.3645 4.0584 2.26059 -3.54023 1.29916e-06
429 1 25.995 0.989461 -3.16191 -3.54023 1.14247e-06
430 1 25.5567 2.74285 -1.35441 -3.54023 8.27848e-07
431 1 25.1187 4.49614 0.453089 -3.54022 4.40372e-07
432 1 24.681 6.24934 2.26059 -3.54022 2.84986e-07
433 1 27.3108 3.18081 -3.16191 -3.54022 2.8602e-07
434 1 26.8728 4.93403 -1.35441 -3.54022 1.68431e-07
435 1 26.4351 6.68723 0.453089 -3.54021 2.82473e-07
436 1 25.9975 8.44045 2.26059 -3.54021 5.5523e-07
437 1 28.6269 5.37207 -3.16191 -3.54021 1.41429e-07
438 1 28.1891 7.1253 -1.35441 -3.54021 3.05567e-07
439 1 27.7513 8.87859 0.453089 -3.54021 4.84654e-07
440 1 27.3135 10.6319 2.26059 -3.54021 5.87322e-07
441 1 29.9429 7.56351 -3.16191 -3.54021 2.89332e-07
442 1 29.505 9.31686 -1.35441 -3.54021 3.89681e-07
443 1 29.067 11.0703 0.453089 -3.54021 4.3195e-07
444 1 28.629 12.8238 2.26059 -3.54021 4.22366e-07
445 1 31.2585 9.75523 -3.16191 -3.54021 2.92495e-07
446 1 30.8204 11.5087 -1.35441 -3.54021 2.98757e-07
447 1 30.3822 13.2623 0.453089 -3.54021 2.68206e-07
448 1 32.5738 11.9472 -3.16191 -3.54022 1.90799e-07
449 1 32.1354 13.7008 -1.35441 -3.54022 1.51892e-07
450 1 33.8886 14.1394 -3.16191 -3.54022 7.4108e-08
451 1 15.0397 -14.7974 2.26059 -3.54014 1.40079e-05
452 1 16.7939 -14.3581 0.453089 -3.5402 3.44936e-06
453 1 16.3562 -12.6055 2.26059 -3.54024 1.12575e-06
454 1 18.5478 -13.9191 -1.35441 -3.54021 1.88736e-06
455 1 18.11 -12.1663 0.453089 -3.5402 1.83143e-06
456 1 17.672 -10.4131 2.26059 -3.54018 3.2555e-06
457 1 20.3015 -13.4802 -3.16191 -3.5402 1.69745e-06
458 1 19.8634 -11.7271 -1.35441 -3.54019 1.89208e-06
459 1 19.425 -9.97373 0.453089 -3.54019 1.87756e-06
460 1 18.9864 -8.22007 2.26059 -3.54021 1.28665e-06
461 1 21.6165 -11.288 -3.16191 -3.5402 1.24917e-06
462 1 21.1779 -9.53446 -1.35441 -3.54021 8.37345e-07
463 1 20.739 -7.78073 0.453089 -3.54021 4.54907e-07
464 1 20.3 -6.02678 2.26059 -3.54022 4.33352e-07
465 1 22.9307 -9.09536 -3.16191 -3.54021 3.78589e-07
466 1 22.4917 -7.34157 -1.35441 -3.54021 2.16817e-07
467 1 22.0526 -5.58765 0.453089 -3.54021 2.42624e-07
468 1 21.6133 -3.83357 2.26059 -3.54022 5.53584e-07
469 1 24.2445 -6.90259 -3.16191 -3.54021 1.53387e-07
470 1 23.8053 -5.1487 -1.35441 -3.54022 2.84765e-07
471 1 23.3661 -3.39474 0.453089 -3.54023 7.71289e-07
472 1 22.9268 -1.64074 2.26059 -3.54024 1.78586e-06
473 1 25.5582 -4.70995 -3.16191 -3.54022 4.61913e-07
474 1 25.1191 -2.95611 -1.35441 -3.54023 9.79186e-07
475 1 24.6801 -1.20232 0.453089 -3.54024 1.63111e-06
476 1 24.2412 0.551385 2.26059 -3.54024 2.0373e-06
477 1 26.8724 -2.51767 -3.16191 -3.54023 9.42064e-07
478 1 26.4336 -0.764051 -1.35441 -3.54023 1.18141e-06
479 1 25.995 0.989461 0.453089 -3.54023 1.14247e-06
480 1 25.5567 2.74285 2.26059 -3.54023 8.27848e-07
481 1 28.1873 -0.325878 -3.16191 -3.54023 7.046e-07
482 1 27.7489 1.42751 -1.35441 -3.54023 5.22859e-07
483 1 27.3108 3.18081 0.453089 -3.54022 2.8602e-07
484 1 26.8728 4.93403 2.26059 -3.54022 1.68431e-07
485 1 29.5028 1.86558 -3.16191 -3.54022 1.91734e-07
486 1 29.0648 3.61884 -1.35441 -3.54022 9.90318e-08
487 1 28.6269 5.37207 0.453089 -3.54021 1.41429e-07
488 1 28.1891 7.1253 2.26059 -3.54021 3.05567e-07
489 1 30.8187 4.05695 -3.16191 -3.54021 7.20109e-08
490 1 30.3808 5.81022 -1.35441 -3.54021 1.61586e-07
491 1 29.9429 7.56351 0.453089 -3.54021 2.89332e-07
492 1 29.505 9.31686 2.26059 -3.54021 3.89681e-07
493 1 32.1346 6.24846 -3.16191 -3.54021 1.68855e-07
494 1 31.6966 8.00182 -1.35441 -3.54021 2.46306e-07
495 1 31.2585 9.75523 0.453089 -3.54021 2.92495e-07
496 1 30.8204 11.5087 2.26059 -3.54021 2.98757e-07
497 1 33.4501 8.44019 -3.16191 -3.54021 1.91875e-07
498 1 33.012 10.1937 -1.35441 -3.54021 2.05413e-07
499 1 32.5738 11.9472 0.453089 -3.54022 1.90799e-07
500 1 32.1354 13.7008 2.26059 -3.54022 1.51892e-07
501 1 34.7653 10.6321 -3.16191 -3.54021 1.32052e-07
502 1 34.327 12.3857 -1.35441 -3.54022 1.07929e-07
503 1 33.8886 14.1394 0.453089 -3.54022 7.4108e-08
504 1 36.0803 12.8242 -3.16191 -3.54022 5.2648e-08
505 1 35.6418 14.5779 -1.35441 -3.54022 3.13123e-08
506 1 18.5478 -13.9191 2.26059 -3.54021 1.88736e-06
507 1 20.3015 -13.4802 0.453089 -3.5402 1.69745e-06
508 1 19.8634 -11.7271 2.26059 -3.54019 1.89208e-06
509 1 22.4929 -14.7947 -3.16191 -3.5402 1.30115e-06
510 1 22.0548 -13.0414 -1.35441 -3.5402 1.34939e-06
511 1 21.6165 -11.288 0.453089 -3.5402 1.24917e-06
512 1 21.1779 -9.53446 2.26059 -3.54021 8.37345e-07
513 1 23.808 -12.6026 -3.16191 -3.5402 8.47037e-07
514 1 23.3695 -10.8491 -1.35441 -3.54021 6.46824e-07
515 1 22.9307 -9.09536 0.453089 -3.54021 3.78589e-07
516 1 22.4917 -7.34157 2.26059 -3.54021 2.16817e-07
517 1 25.1223 -10.4102 -3.16191 -3.54021 3.00691e-07
518 1 24.6835 -8.65643 -1.35441 -3.54021 1.85322e-07
519 1 24.2445 -6.90259 0.453089 -3.54021 1.53387e-07
520 1 23.8053 -5.1487 2.26059 -3.54022 2.84765e-07
521 1 26.4363 -8.21763 -3.16191 -3.54022 1.18633e-07
522 1 25.9973 -6.46379 -1.35441 -3.54022 2.00311e-07
523 1 25.5582 -4.70995 0.453089 -3.54022 4.61913e-07
524 1 25.1191 -2.95611 2.26059 -3.54023 9.79186e-07
525 1 27.7503 -6.02517 -3.16191 -3.54022 3.00005e-07
526 1 27.3113 -4.27139 -1.35441 -3.54023 5.91173e-07
527 1 26.8724 -2.51767 0.453089 -3.54023 9.42064e-07
528 1 26.4336 -0.764051 2.26059 -3.54023 1.18141e-06
529 1 29.0646 -3.83299 -3.16191 -3.54023 5.72481e-07
530 1 28.6259 -2.07938 -1.35441 -3.54023 7.18756e-07
531 1 28.1873 -0.325878 0.453089 -3.54023 7.046e-07
532 1 27.7489 1.42751 2.26059 -3.54023 5.22859e-07
533 1 30.3795 -1.64117 -3.16191 -3.54022 4.49304e-07
534 1 29.9411 0.112251 -1.35441 -3.54022 3.45231e-07
535 1 29.5028 1.86558 0.453089 -3.54022 1.91734e-07
536 1 29.0648 3.61884 2.26059 -3.54022 9.90318e-08
537 1 31.6949 0.550374 -3.16191 -3.54022 1.36658e-07
538 1 31.2568 2.30368 -1.35441 -3.54022 6.64549e-08
539 1 30.8187 4.05695 0.453089 -3.54021 7.20109e-08
540 1 30.3808 5.81022 2.26059 -3.54021 1.61586e-07
541 1 33.0106 2.74184 -3.16191 -3.54022 4.07816e-08
542 1 32.5726 4.49515 -1.35441 -3.54021 8.76577e-08
543 1 32.1346 6.24846 0.453089 -3.54021 1.68855e-07
544 1 31.6966 8.00182 2.26059 -3.54021 2.46306e-07
545 1 34.3263 4.9334 -3.16191 -3.54021 9.86099e-08
546 1 33.8882 6.68678 -1.35441 -3.54021 1.51828e-07
547 1 33.4501 8.44019 0.453089 -3.54021 1.91875e-07
548 1 33.012 10.1937 2.26059 -3.54021 2.05413e-07
549 1 35.6418 7.12514 -3.16191 -3.54021 1.24101e-07
550 1 35.2036 8.87861 -1.35441 -3.54021 1.38401e-07
551 1 34.7653 10.6321 0.453089 -3.54021 1.32052e-07
552 1 34.327 12.3857 2.26059 -3.54022 1.07929e-07
553 1 36.957 9.31705 -3.16191 -3.54022 9.10399e-08
554 1 36.5187 11.0706 -1.35441 -3.54022 7.50139e-08
555 1 36.0803 12.8242 0.453089 -3.54022 5.2648e-08
556 1 35.6418 14.5779 2.26059 -3.54022 3.13123e-08
557 1 38.272 11.5091 -3.16191 -3.54022 3.71536e-08
558 1 37.8335 13.2627 -1.35441 -3.54022 2.23794e-08
559 1 39.5868 13.7012 -3.16191 -3.54022 9.21409e-09
560 1 22.4929 -14.7947 0.453089 -3.5402 1.30115e-06
561 1 22.0548 -13.0414 2.26059 -3.5402 1.34939e-06
562 1 24.2462 -14.3562 -1.35441 -3.54021 8.93846e-07
563 1 23.808 -12.6026 0.453089 -3.5402 8.47037e-07
564 1 23.3695 -10.8491 2.26059 -3.54021 6.46824e-07
565 1 25.9994 -13.9176 -3.16191 -3.54021 5.45896e-07
566 1 25.561 -12.1639 -1.35441 -3.54021 4.4091e-07
567 1 25.1223 -10.4102 0.453089 -3.54021 3.00691e-07
568 1 24.6835 -8.65643 2.26059 -3.54021 1.85322e-07
569 1 27.3139 -11.7252 -3.16191 -3.54021 1.98844e-07
570 1 26.8752 -9.97146 -1.35441 -3.54021 1.31183e-07
571 1 26.4363 -8.21763 0.453089 -3.54022 1.18633e-07
572 1 25.9973 -6.46379 2.26059 -3.54022 2.00311e-07
573 1 28.6281 -9.5328 -3.16191 -3.54022 7.18038e-08
574 1 28.1893 -7.77898 -1.35441 -3.54022 1.3441e-07
575 1 27.7503 -6.02517 0.453089 -3.54022 3.00005e-07
576 1 27.3113 -4.27139 2.26059 -3.54023 5.91173e-07
577 1 29.9423 -7.34044 -3.16191 -3.54022 1.87925e-07
578 1 29.5034 -5.58668 -1.35441 -3.54022 3.64623e-07
579 1 29.0646 -3.83299 0.453089 -3.54023 5.72481e-07
580 1 28.6259 -2.07938 2.26059 -3.54023 7.18756e-07