ITEM: TIMESTEP
0
ITEM: NUMBER OF ATOMS
3656
ITEM: BOX BOUNDS xy xz yz mm pp pp
-1.2522499999999999e+02 1.2522499999999999e+02 0.0000000000000000e+00
-1.4905042650000000e+01 1.4905042650000000e+01 0.0000000000000000e+00
-3.6150000000000002e+00 3.6150000000000002e+00 0.0000000000000000e+00
ITEM: ATOMS id type x y z c_eng c_csym
1 2 0.749602 13.1676 -3.16621 -3.31162 4.43897
2 2 -0.314048 7.7033 -1.35871 -3.28718 9.00728
3 2 0.841256 9.33136 -3.16621 -3.50006 8.38979
4 2 0.852892 11.2071 -1.35871 -3.52598 2.98442
5 2 0.749602 13.1676 0.448787 -3.31162 4.43897
6 1 2.66239 11.6168 -3.16621 -3.49628 0.512256
7 1 2.35623 13.465 -1.35871 -3.50988 0.581017
8 1 4.04614 13.8749 -3.16621 -3.54047 0.062985
9 2 0.879383 3.72392 -3.16621 -3.52244 3.68835
10 2 0.869365 5.55231 -1.35871 -3.24304 7.92338
11 2 -0.314048 7.7033 2.25629 -3.28718 9.00728
12 1 2.39903 5.9851 -3.16621 -3.46263 3.14901
13 1 2.01873 7.7789 -1.35871 -3.29487 9.15945
14 2 0.841256 9.33136 0.448787 -3.50006 8.38979
15 2 0.852892 11.2071 2.25629 -3.52598 2.98442
16 1 3.61495 8.23646 -3.16621 -3.47113 0.516173
17 1 3.06822 9.96267 -1.35871 -3.4496 0.578705
18 1 2.66239 11.6168 0.448787 -3.49628 0.512256
19 1 2.35623 13.465 2.25629 -3.50988 0.581017
20 1 4.89931 10.3909 -3.16621 -3.52214 0.0237135
21 1 4.46788 12.1117 -1.35871 -3.53015 0.0303887
22 1 4.04614 13.8749 0.448787 -3.54047 0.062985
23 1 6.23478 12.5671 -3.16621 -3.53723 0.00105353
24 1 5.79213 14.3196 -1.35871 -3.54514 0.0116981
25 2 0.881727 -1.90149 -3.16621 -3.24375 7.92131
26 2 -0.298891 0.255109 0.448788 -3.28832 8.98523
27 1 2.03566 0.317247 -3.16621 -3.29722 9.17455
28 2 0.843295 1.86936 -1.35871 -3.4958 8.42632
29 2 0.879383 3.72392 0.448787 -3.52244 3.68835
30 2 0.869365 5.55231 2.25629 -3.24304 7.92338
31 1 3.11604 2.47647 -3.16621 -3.43736 0.60313
32 1 2.75883 4.09837 -1.35871 -3.46623 0.729682
33 1 2.39903 5.9851 0.448787 -3.46263 3.14901
34 1 2.01873 7.7789 2.25629 -3.29487 9.15945
35 1 4.51927 4.63134 -3.16621 -3.53378 0.0446033
36 1 4.09338 6.3831 -1.35871 -3.52974 0.0766193
37 1 3.61495 8.23646 0.448787 -3.47113 0.516173
38 1 3.06822 9.96267 2.25629 -3.4496 0.578705
39 1 5.79619 6.86952 -3.16621 -3.54527 0.0139085
40 1 5.33152 8.63721 -1.35871 -3.5435 0.0273306
41 1 4.89931 10.3909 0.448787 -3.52214 0.0237135
42 1 4.46788 12.1117 2.25629 -3.53015 0.0303887
43 1 7.09817 9.06767 -3.16621 -3.54136 0.0019971
44 1 6.66895 10.8164 -1.35871 -3.53755 0.000960884
45 1 6.23478 12.5671 0.448787 -3.53723 0.00105353
46 1 5.79213 14.3196 2.25629 -3.54514 0.0116981
47 1 8.43011 11.2535 -3.16621 -3.54002 4.40125e-05
48 1 7.99471 13.0044 -1.35871 -3.54065 0.000530797
49 1 9.76048 13.4382 -3.16621 -3.54037 0.000149917
50 2 -0.297993 -7.20508 -1.35871 -3.28377 9.00147
51 2 0.815429 -5.58014 -3.16621 -3.49333 8.8637
52 2 0.896068 -3.73052 -1.35871 -3.52334 3.83115
53 2 0.881727 -1.90149 0.448787 -3.24375 7.92131
54 2 -0.298891 0.255109 -3.16621 -3.28832 8.98523
55 1 2.78179 -3.34118 -3.16621 -3.46262 0.774487
56 1 2.41725 -1.47174 -1.35871 -3.46489 3.03445
57 1 2.03566 0.317247 0.448787 -3.29722 9.17455
58 2 0.843295 1.86936 2.25629 -3.4958 8.42632
59 1 4.12028 -1.06699 -3.16621 -3.53266 0.0684535
60 1 3.64661 0.768844 -1.35871 -3.47534 0.531643
61 1 3.11604 2.47647 0.448787 -3.43736 0.60313
62 1 2.75883 4.09837 2.25629 -3.46623 0.729682
63 1 5.37815 1.17053 -3.16621 -3.54462 0.022373
64 1 4.96536 2.90834 -1.35871 -3.51767 0.0378389
65 1 4.51927 4.63134 0.448787 -3.53378 0.0446033
66 1 4.09338 6.3831 2.25629 -3.52974 0.0766193
67 1 6.71832 3.35277 -3.16621 -3.53718 0.00465592
68 1 6.27199 5.10408 -1.35871 -3.53565 0.00532279
69 1 5.79619 6.86952 0.448787 -3.54527 0.0139085
70 1 5.33152 8.63721 2.25629 -3.5435 0.0273306
71 1 8.00632 5.56295 -3.16621 -3.54067 0.00127018
72 1 7.54449 7.31851 -1.35871 -3.54235 0.00428204
73 1 7.09817 9.06767 0.448787 -3.54136 0.0019971
74 1 6.66895 10.8164 2.25629 -3.53755 0.000960884
75 1 9.30569 7.7583 -3.16621 -3.54037 0.000860539
76 1 8.86565 9.50506 -1.35871 -3.53968 0.000151199
77 1 8.43011 11.2535 0.448787 -3.54002 4.40125e-05
78 1 7.99471 13.0044 2.25629 -3.54065 0.000530797
79 1 10.6289 9.94368 -3.16621 -3.53992 3.494e-05
80 1 10.1924 11.6912 -1.35871 -3.5405 0.000101675
81 1 9.76048 13.4382 0.448787 -3.54037 0.000149917
82 1 11.9561 12.1281 -3.16621 -3.54019 4.12924e-05
83 1 11.5252 13.8747 -1.35871 -3.5398 0.00015935
84 1 13.2853 14.3139 -3.16621 -3.53984 0.000142361
85 2 0.954834 -11.0672 -3.16621 -3.50004 1.81966
86 2 0.887112 -9.33273 -1.35871 -3.26231 7.55591
87 2 -0.297993 -7.20508 2.25629 -3.28377 9.00147
88 1 2.43314 -8.85428 -3.16621 -3.48229 3.33368
89 1 2.03883 -7.08819 -1.35871 -3.30678 9.23809
90 2 0.815429 -5.58014 0.448787 -3.49333 8.8637
91 2 0.896068 -3.73052 2.25629 -3.52334 3.83115
92 1 3.67072 -6.63986 -3.16621 -3.47585 0.609974
93 1 3.1507 -4.94832 -1.35871 -3.4251 0.701621
94 1 2.78179 -3.34118 0.448787 -3.46262 0.774487
95 1 2.41725 -1.47174 2.25629 -3.46489 3.03445
96 1 5.00043 -4.51676 -3.16621 -3.51603 0.0453274
97 1 4.55149 -2.80486 -1.35871 -3.53325 0.0391843
98 1 4.12028 -1.06699 0.448787 -3.53266 0.0684535
99 1 3.64661 0.768844 2.25629 -3.47534 0.531643
100 1 6.30902 -2.33467 -3.16621 -3.53576 0.00574906
101 1 5.83537 -0.581348 -1.35871 -3.54609 0.0119271
102 1 5.37815 1.17053 0.448787 -3.54462 0.022373
103 1 4.96536 2.90834 2.25629 -3.51767 0.0378389
104 1 7.59092 -0.134052 -3.16621 -3.54188 0.00253084
105 1 7.1512 1.60624 -1.35871 -3.53973 0.00115039
106 1 6.71832 3.35277 0.448787 -3.53718 0.00465592
107 1 6.27199 5.10408 2.25629 -3.53565 0.00532279
108 1 8.90926 2.05258 -3.16621 -3.53896 0.000900868
109 1 8.46354 3.80403 -1.35871 -3.5393 0.000942493
110 1 8.00632 5.56295 0.448787 -3.54067 0.00127018
111 1 7.54449 7.31851 2.25629 -3.54235 0.00428204
112 1 10.2076 4.25306 -3.16621 -3.54047 0.000260605
113 1 9.75414 6.00766 -1.35871 -3.54108 0.00107825
114 1 9.30569 7.7583 0.448787 -3.54037 0.000860539
115 1 8.86565 9.50506 2.25629 -3.53968 0.000151199
116 1 11.5102 6.44702 -3.16621 -3.54047 0.000411716
117 1 11.0677 8.19606 -1.35871 -3.53998 0.000150156
118 1 10.6289 9.94368 0.448787 -3.53992 3.494e-05
119 1 10.1924 11.6912 2.25629 -3.5405 0.000101675
120 1 12.8284 8.63325 -3.16621 -3.54007 6.04976e-05
121 1 12.3909 10.3812 -1.35871 -3.54017 3.99504e-05
122 1 11.9561 12.1281 0.448787 -3.54019 4.12924e-05
123 1 11.5252 13.8747 2.25629 -3.5398 0.00015935
124 1 14.1522 10.818 -3.16621 -3.54012 2.45217e-05
125 1 13.7181 12.5657 -1.35871 -3.53996 5.37704e-05
126 1 13.2853 14.3139 0.448787 -3.53984 0.000142361
127 1 15.4771 13.0042 -3.16621 -3.53998 5.48316e-05
128 1 0.128219 -14.6884 -0.756213 -2.85472 9.35856
129 1 1.96399 -14.4574 -3.16621 -3.2905 1.82271
130 1 1.21733 -12.7412 -1.35871 -3.43841 1.61154
131 2 0.954834 -11.0672 0.448787 -3.50004 1.81966
132 2 0.887112 -9.33273 2.25629 -3.26231 7.55591
133 1 3.19825 -12.3494 -3.16621 -3.50478 0.133949
134 1 2.86492 -10.6787 -1.35871 -3.49841 0.336339
135 1 2.43314 -8.85428 0.448787 -3.48229 3.33368
136 1 2.03883 -7.08819 2.25629 -3.30678 9.23809
137 1 4.58697 -10.2094 -3.16621 -3.53458 0.0213006
138 1 4.15179 -8.45048 -1.35871 -3.53332 0.0184609
139 1 3.67072 -6.63986 0.448787 -3.47585 0.609974
140 1 3.1507 -4.94832 2.25629 -3.4251 0.701621
141 1 5.86373 -8.0028 -3.16621 -3.54391 0.00825235
142 1 5.41485 -6.24623 -1.35871 -3.54226 0.0197367
143 1 5.00043 -4.51676 0.448787 -3.51603 0.0453274
144 1 4.55149 -2.80486 2.25629 -3.53325 0.0391843
145 1 7.18325 -5.82987 -3.16621 -3.53906 0.00142486
146 1 6.75489 -4.08049 -1.35871 -3.53648 0.00670442
147 1 6.30902 -2.33467 0.448787 -3.53576 0.00574906
148 1 5.83537 -0.581348 2.25629 -3.54609 0.0119271
149 1 8.49803 -3.64192 -3.16621 -3.53912 0.00115105
150 1 8.04694 -1.88317 -1.35871 -3.54046 0.00175222
151 1 7.59092 -0.134052 0.448787 -3.54188 0.00253084
152 1 7.1512 1.60624 2.25629 -3.53973 0.00115039
153 1 9.79375 -1.44587 -3.16621 -3.54075 0.000610621
154 1 9.35071 0.305145 -1.35871 -3.5395 0.000434216
155 1 8.90926 2.05258 0.448787 -3.53896 0.000900868
156 1 8.46354 3.80403 2.25629 -3.5393 0.000942493
157 1 11.103 0.74408 -3.16621 -3.53946 0.000250459
158 1 10.6584 2.49798 -1.35871 -3.53945 0.000294573
159 1 10.2076 4.25306 0.448787 -3.54047 0.000260605
160 1 9.75414 6.00766 2.25629 -3.54108 0.00107825
161 1 12.4054 2.93982 -3.16621 -3.54014 0.000118374
162 1 11.9571 4.69493 -1.35871 -3.54053 0.000352288
163 1 11.5102 6.44702 0.448787 -3.54047 0.000411716
164 1 11.0677 8.19606 2.25629 -3.53998 0.000150156
165 1 13.7106 5.1325 -3.16621 -3.54035 0.000206644
166 1 13.2683 6.88399 -1.35871 -3.54017 0.00013973
167 1 12.8284 8.63325 0.448787 -3.54007 6.04976e-05
168 1 12.3909 10.3812 2.25629 -3.54017 3.99504e-05
169 1 15.0263 7.31985 -3.16621 -3.54015 5.87631e-05
170 1 14.5884 9.06963 -1.35871 -3.54014 3.58777e-05
171 1 14.1522 10.818 0.448787 -3.54012 2.45217e-05
172 1 13.7181 12.5657 2.25629 -3.53996 5.37704e-05
173 1 16.3473 9.50566 -3.16621 -3.54013 1.86453e-05
174 1 15.9119 11.255 -1.35871 -3.54005 2.70537e-05
175 1 15.4771 13.0042 0.448787 -3.53998 5.48316e-05
176 1 17.6695 11.6925 -3.16621 -3.54007 2.59557e-05
177 1 17.2337 13.4432 -1.35871 -3.54007 3.11223e-05
178 1 18.9888 13.8821 -3.16621 -3.54015 1.48169e-05
179 1 0.128219 -14.6884 2.85879 -2.85472 9.35856
180 1 1.96399 -14.4574 0.448787 -3.2905 1.82271
181 1 1.21733 -12.7412 2.25629 -3.43841 1.61154
182 1 3.62517 -14.108 -1.35871 -3.52147 0.109018
183 1 3.19825 -12.3494 0.448787 -3.50478 0.133949
184 1 2.86492 -10.6787 2.25629 -3.49841 0.336339
185 1 5.37785 -13.7331 -3.16621 -3.5446 0.0132482
186 1 5.00444 -11.9761 -1.35871 -3.52714 0.0282556
187 1 4.58697 -10.2094 0.448787 -3.53458 0.0213006
188 1 4.15179 -8.45048 2.25629 -3.53332 0.0184609
189 1 6.74349 -11.5527 -3.16621 -3.5388 0.00596037
190 1 6.31753 -9.78071 -1.35871 -3.53835 0.00211915
191 1 5.86373 -8.0028 0.448787 -3.54391 0.00825235
192 1 5.41485 -6.24623 2.25629 -3.54226 0.0197367
193 1 8.04796 -9.34766 -3.16621 -3.54184 0.00118044
194 1 7.61003 -7.58312 -1.35871 -3.54238 0.00207411
195 1 7.18325 -5.82987 0.448787 -3.53906 0.00142486
196 1 6.75489 -4.08049 2.25629 -3.53648 0.00670442
197 1 9.36394 -7.15792 -3.16621 -3.54024 0.000190472
198 1 8.93483 -5.4003 -1.35871 -3.53925 0.000907443
199 1 8.49803 -3.64192 0.448787 -3.53912 0.00115105
200 1 8.04694 -1.88317 2.25629 -3.54046 0.00175222
201 1 10.6798 -4.96498 -3.16621 -3.53988 0.000243827
202 1 10.2389 -3.20385 -1.35871 -3.54055 0.000166632
203 1 9.79375 -1.44587 0.448787 -3.54075 0.000610621
204 1 9.35071 0.305145 2.25629 -3.5395 0.000434216
205 1 11.9844 -2.76795 -3.16621 -3.54061 6.03335e-05
206 1 11.5439 -1.01062 -1.35871 -3.54017 7.04747e-05
207 1 11.103 0.74408 0.448787 -3.53946 0.000250459
208 1 10.6584 2.49798 2.25629 -3.53945 0.000294573
209 1 13.293 -0.573998 -3.16621 -3.54002 2.52588e-05
210 1 12.8511 1.18312 -1.35871 -3.53987 7.04255e-05
211 1 12.4054 2.93982 0.448787 -3.54014 0.000118374
212 1 11.9571 4.69493 2.25629 -3.54053 0.000352288
213 1 14.5989 1.62142 -3.16621 -3.54022 3.16915e-05
214 1 14.1548 3.3781 -1.35871 -3.54036 0.000130439
215 1 13.7106 5.1325 0.448787 -3.54035 0.000206644
216 1 13.2683 6.88399 2.25629 -3.54017 0.00013973
217 1 15.9068 3.81444 -3.16621 -3.54036 8.86417e-05
218 1 15.4658 5.56823 -1.35871 -3.54025 8.83938e-05
219 1 15.0263 7.31985 0.448787 -3.54015 5.87631e-05
220 1 14.5884 9.06963 2.25629 -3.54014 3.58777e-05
221 1 17.2216 6.00345 -3.16621 -3.54024 3.47565e-05
222 1 16.7839 7.75526 -1.35871 -3.54018 2.41873e-05
223 1 16.3473 9.50566 0.448787 -3.54013 1.86453e-05
224 1 15.9119 11.255 2.25629 -3.54005 2.70537e-05
225 1 18.541 8.19081 -3.16621 -3.54018 8.58677e-06
226 1 18.105 9.94193 -1.35871 -3.54012 1.34401e-05
227 1 17.6695 11.6925 0.448787 -3.54007 2.59557e-05
228 1 17.2337 13.4432 2.25629 -3.54007 3.11223e-05
229 1 19.8614 10.3787 -3.16621 -3.54013 1.1247e-05
230 1 19.4253 12.1304 -1.35871 -3.54012 1.68983e-05
231 1 18.9888 13.8821 0.448787 -3.54015 1.48169e-05
232 1 21.18 12.5684 -3.16621 -3.54017 9.38932e-06
233 1 20.743 14.3209 -1.35871 -3.54018 8.05283e-06
234 1 3.62517 -14.108 2.25629 -3.52147 0.109018
235 1 5.37785 -13.7331 0.448787 -3.5446 0.0132482
236 1 5.00444 -11.9761 2.25629 -3.52714 0.0282556
237 1 7.56534 14.7508 -3.16621 -3.54057 0.00116272
238 1 7.1536 -13.3144 -1.35871 -3.53883 0.00517147
239 1 6.74349 -11.5527 0.448787 -3.5388 0.00596037
240 1 6.31753 -9.78071 2.25629 -3.53835 0.00211915
241 1 8.91222 -12.8759 -3.16621 -3.53909 0.00183066
242 1 8.48427 -11.1165 -1.35871 -3.54028 0.00134112
243 1 8.04796 -9.34766 0.448787 -3.54184 0.00118044
244 1 7.61003 -7.58312 2.25629 -3.54238 0.00207411
245 1 10.2293 -10.6765 -3.16621 -3.54095 0.000300744
246 1 9.79415 -8.91663 -1.35871 -3.54141 0.000481897
247 1 9.36394 -7.15792 0.448787 -3.54024 0.000190472
248 1 8.93483 -5.4003 2.25629 -3.53925 0.000907443
249 1 11.5464 -8.48189 -3.16621 -3.54041 0.000112839
250 1 11.1143 -6.72464 -1.35871 -3.53994 0.000246843
251 1 10.6798 -4.96498 0.448787 -3.53988 0.000243827
252 1 10.2389 -3.20385 2.25629 -3.54055 0.000166632
253 1 12.8627 -6.28671 -3.16621 -3.54012 0.000115982
254 1 12.4247 -4.52749 -1.35871 -3.54042 4.75144e-05
255 1 11.9844 -2.76795 0.448787 -3.54061 6.03335e-05
256 1 11.5439 -1.01062 2.25629 -3.54017 7.04747e-05
257 1 14.1721 -4.08945 -3.16621 -3.54044 2.48718e-05
258 1 13.7327 -2.3315 -1.35871 -3.54033 8.87416e-06
259 1 13.293 -0.573998 0.448787 -3.54002 2.52588e-05
260 1 12.8511 1.18312 2.25629 -3.53987 7.04255e-05
261 1 15.4818 -1.8937 -3.16621 -3.5402 9.51333e-06
262 1 15.0413 -0.136195 -1.35871 -3.54014 1.00996e-05
263 1 14.5989 1.62142 0.448787 -3.54022 3.16915e-05
264 1 14.1548 3.3781 2.25629 -3.54036 0.000130439
265 1 16.7904 0.301882 -3.16621 -3.54027 1.47231e-05
266 1 16.3486 2.05871 -1.35871 -3.54035 4.70554e-05
267 1 15.9068 3.81444 0.448787 -3.54036 8.86417e-05
268 1 15.4658 5.56823 2.25629 -3.54025 8.83938e-05
269 1 18.1005 2.4954 -3.16621 -3.54035 4.10965e-05
270 1 17.6605 4.25012 -1.35871 -3.54031 4.49477e-05
271 1 17.2216 6.00345 0.448787 -3.54024 3.47565e-05
272 1 16.7839 7.75526 2.25629 -3.54018 2.41873e-05
273 1 19.4152 4.68582 -3.16621 -3.54028 1.97694e-05
274 1 18.9777 6.43881 -1.35871 -3.54023 1.19597e-05
275 1 18.541 8.19081 0.448787 -3.54018 8.58677e-06
276 1 18.105 9.94193 2.25629 -3.54012 1.34401e-05
277 1 20.7335 6.87464 -3.16621 -3.54022 3.52103e-06
278 1 20.2973 8.62688 -1.35871 -3.54017 4.6926e-06
279 1 19.8614 10.3787 0.448787 -3.54013 1.1247e-05
280 1 19.4253 12.1304 2.25629 -3.54012 1.68983e-05
281 1 22.0528 9.0636 -3.16621 -3.54018 4.40563e-06
282 1 21.6166 10.816 -1.35871 -3.54016 8.05307e-06
283 1 21.18 12.5684 0.448787 -3.54017 9.38932e-06
284 1 20.743 14.3209 2.25629 -3.54018 8.05283e-06
285 1 23.371 11.2537 -3.16621 -3.54019 5.27146e-06
286 1 22.934 13.0066 -1.35871 -3.54019 5.44961e-06
287 1 24.6875 13.445 -3.16621 -3.5402 3.51778e-06
288 1 7.56534 14.7508 0.448787 -3.54057 0.00116272
289 1 7.1536 -13.3144 2.25629 -3.53883 0.00517147
290 1 9.33555 -14.6259 -1.35871 -3.53904 0.000634779
291 1 8.91222 -12.8759 0.448787 -3.53909 0.00183066
292 1 8.48427 -11.1165 2.25629 -3.54028 0.00134112
293 1 11.096 -14.1869 -3.16621 -3.53948 0.000447775
294 1 10.6646 -12.4341 -1.35871 -3.53985 0.000361503
295 1 10.2293 -10.6765 0.448787 -3.54095 0.000300744
296 1 9.79415 -8.91663 2.25629 -3.54141 0.000481897
297 1 12.4163 -11.9926 -3.16621 -3.54035 4.75997e-05
298 1 11.9803 -10.2377 -1.35871 -3.54064 8.64942e-05
299 1 11.5464 -8.48189 0.448787 -3.54041 0.000112839
300 1 11.1143 -6.72464 2.25629 -3.53994 0.000246843
301 1 13.7335 -9.79842 -3.16621 -3.54027 2.75316e-05
302 1 13.2984 -8.04365 -1.35871 -3.5401 8.72543e-05
303 1 12.8627 -6.28671 0.448787 -3.54012 0.000115982
304 1 12.4247 -4.52749 2.25629 -3.54042 4.75144e-05
305 1 15.0493 -7.60357 -3.16621 -3.54014 4.3714e-05
306 1 14.6112 -5.84715 -1.35871 -3.54029 3.51183e-05
307 1 14.1721 -4.08945 0.448787 -3.54044 2.48718e-05
308 1 13.7327 -2.3315 2.25629 -3.54033 8.87416e-06
309 1 16.3609 -5.40727 -3.16621 -3.5403 1.32115e-05
310 1 15.9214 -3.65076 -1.35871 -3.5403 1.23012e-05
311 1 15.4818 -1.8937 0.448787 -3.5402 9.51333e-06
312 1 15.0413 -0.136195 2.25629 -3.54014 1.00996e-05
313 1 17.6716 -3.21151 -3.16621 -3.54023 7.43577e-06
314 1 17.2314 -1.45506 -1.35871 -3.54022 8.3516e-06
315 1 16.7904 0.301882 0.448787 -3.54027 1.47231e-05
316 1 16.3486 2.05871 2.25629 -3.54035 4.70554e-05
317 1 18.9818 -1.01628 -3.16621 -3.54026 1.03413e-05
318 1 18.5411 0.739726 -1.35871 -3.54032 2.38672e-05
319 1 18.1005 2.4954 0.448787 -3.54035 4.10965e-05
320 1 17.6605 4.25012 2.25629 -3.54031 4.49477e-05
321 1 20.2933 1.17728 -3.16621 -3.54031 2.21932e-05
322 1 19.8538 2.93191 -1.35871 -3.54031 2.53575e-05
323 1 19.4152 4.68582 0.448787 -3.54028 1.97694e-05
324 1 18.9777 6.43881 2.25629 -3.54023 1.19597e-05
325 1 21.6082 3.36851 -3.16621 -3.54028 1.26084e-05
326 1 21.1704 5.12185 -1.35871 -3.54025 7.41657e-06
327 1 20.7335 6.87464 0.448787 -3.54022 3.52103e-06
328 1 20.2973 8.62688 2.25629 -3.54017 4.6926e-06
329 1 22.9257 5.55835 -3.16621 -3.54023 2.39555e-06
330 1 22.4891 7.31108 -1.35871 -3.5402 1.85706e-06
331 1 22.0528 9.0636 0.448787 -3.54018 4.40563e-06
332 1 21.6166 10.816 2.25629 -3.54016 8.05307e-06
333 1 24.2442 7.74812 -3.16621 -3.5402 2.07902e-06
334 1 23.8076 9.5009 -1.35871 -3.54019 3.94734e-06
335 1 23.371 11.2537 0.448787 -3.54019 5.27146e-06
336 1 22.934 13.0066 2.25629 -3.54019 5.44961e-06
337 1 25.5619 9.93866 -3.16621 -3.5402 3.1484e-06
338 1 25.1248 11.6918 -1.35871 -3.5402 3.52471e-06
339 1 24.6875 13.445 0.448787 -3.5402 3.51778e-06
340 1 26.8784 12.1301 -3.16621 -3.54021 2.46209e-06
341 1 26.4407 13.8836 -1.35871 -3.54021 2.34581e-06
342 1 28.1936 14.3223 -3.16621 -3.54021 1.47508e-06
343 1 9.33555 -14.6259 2.25629 -3.53904 0.000634779
344 1 11.096 -14.1869 0.448787 -3.53948 0.000447775
345 1 10.6646 -12.4341 2.25629 -3.53985 0.000361503
346 1 12.8517 -13.7457 -1.35871 -3.53997 0.000132722
347 1 12.4163 -11.9926 0.448787 -3.54035 4.75997e-05
348 1 11.9803 -10.2377 2.25629 -3.54064 8.64942e-05
349 1 14.6061 -13.3046 -3.16621 -3.54021 2.31057e-05
350 1 14.1695 -11.552 -1.35871 -3.54035 1.14197e-05
351 1 13.7335 -9.79842 0.448787 -3.54027 2.75316e-05
352 1 13.2984 -8.04365 2.25629 -3.5401 8.72543e-05
353 1 15.9232 -11.1116 -3.16621 -3.54022 8.30497e-06
354 1 15.4864 -9.35826 -1.35871 -3.54014 2.58055e-05
355 1 15.0493 -7.60357 0.448787 -3.54014 4.3714e-05
356 1 14.6112 -5.84715 2.25629 -3.54029 3.51183e-05
357 1 17.2386 -8.91759 -3.16621 -3.54016 1.52411e-05
358 1 16.8 -7.16297 -1.35871 -3.54021 1.44488e-05
359 1 16.3609 -5.40727 0.448787 -3.5403 1.32115e-05
360 1 15.9214 -3.65076 2.25629 -3.5403 1.23012e-05
361 1 18.5511 -6.72247 -3.16621 -3.54023 4.72948e-06
362 1 18.1114 -4.96731 -1.35871 -3.54025 5.78097e-06
363 1 17.6716 -3.21151 0.448787 -3.54023 7.43577e-06
364 1 17.2314 -1.45506 2.25629 -3.54022 8.3516e-06
365 1 19.8626 -4.52741 -3.16621 -3.54022 2.90087e-06
366 1 19.4223 -2.77207 -1.35871 -3.54022 5.06858e-06
367 1 18.9818 -1.01628 0.448787 -3.54026 1.03413e-05
368 1 18.5411 0.739726 2.25629 -3.54032 2.38672e-05
369 1 21.1738 -2.33283 -3.16621 -3.54024 5.67928e-06
370 1 20.7334 -0.577742 -1.35871 -3.54028 1.30917e-05
371 1 20.2933 1.17728 0.448787 -3.54031 2.21932e-05
372 1 19.8538 2.93191 2.25629 -3.54031 2.53575e-05
373 1 22.4862 -0.139538 -3.16621 -3.54028 1.19588e-05
374 1 22.0468 1.61467 -1.35871 -3.54029 1.47579e-05
375 1 21.6082 3.36851 0.448787 -3.54028 1.26084e-05
376 1 21.1704 5.12185 2.25629 -3.54025 7.41657e-06
377 1 23.801 2.05203 -3.16621 -3.54026 7.77133e-06
378 1 23.363 3.80535 -1.35871 -3.54025 5.1291e-06
379 1 22.9257 5.55835 0.448787 -3.54023 2.39555e-06
380 1 22.4891 7.31108 2.25629 -3.5402 1.85706e-06
381 1 25.1179 4.24247 -3.16621 -3.54023 1.72101e-06
382 1 24.6808 5.99534 -1.35871 -3.54021 1.11874e-06
383 1 24.2442 7.74812 0.448787 -3.5402 2.07902e-06
384 1 23.8076 9.5009 2.25629 -3.54019 3.94734e-06
385 1 26.4357 6.43277 -3.16621 -3.54021 1.10827e-06
386 1 25.9988 8.18566 -1.35871 -3.5402 2.18809e-06
387 1 25.5619 9.93866 0.448787 -3.5402 3.1484e-06
388 1 25.1248 11.6918 2.25629 -3.5402 3.52471e-06
389 1 27.753 8.62358 -3.16621 -3.5402 1.94694e-06
390 1 27.3158 10.3768 -1.35871 -3.5402 2.37956e-06
391 1 26.8784 12.1301 0.448787 -3.54021 2.46209e-06
392 1 26.4407 13.8836 2.25629 -3.54021 2.34581e-06
393 1 29.0694 10.8151 -3.16621 -3.54021 1.73386e-06
394 1 28.6316 12.5686 -1.35871 -3.54021 1.6797e-06
395 1 28.1936 14.3223 0.448787 -3.54021 1.47508e-06
396 1 30.3847 13.0072 -3.16621 -3.54021 1.06803e-06
397 1 12.8517 -13.7457 2.25629 -3.53997 0.000132722
398 1 15.0421 14.7542 -1.35871 -3.54003 5.84179e-05
399 1 14.6061 -13.3046 0.448787 -3.54021 2.31057e-05
400 1 14.1695 -11.552 2.25629 -3.54035 1.14197e-05
401 1 16.7973 -14.6158 -3.16621 -3.54015 1.85009e-05
402 1 16.3603 -12.864 -1.35871 -3.54023 6.53501e-06
403 1 15.9232 -11.1116 0.448787 -3.54022 8.30497e-06
404 1 15.4864 -9.35826 2.25629 -3.54014 2.58055e-05
405 1 18.1142 -12.4238 -3.16621 -3.54019 6.4176e-06
406 1 17.6765 -10.6711 -1.35871 -3.54017 1.00142e-05
407 1 17.2386 -8.91759 0.448787 -3.54016 1.52411e-05
408 1 16.8 -7.16297 2.25629 -3.54021 1.44488e-05
409 1 19.4292 -10.2307 -3.16621 -3.54017 7.05714e-06
410 1 18.9904 -8.47694 -1.35871 -3.54019 5.8928e-06
411 1 18.5511 -6.72247 0.448787 -3.54023 4.72948e-06
412 1 18.1114 -4.96731 2.25629 -3.54025 5.78097e-06
413 1 20.7422 -8.0366 -3.16621 -3.54021 2.10359e-06
414 1 20.3025 -6.28223 -1.35871 -3.54022 1.82707e-06
415 1 19.8626 -4.52741 0.448787 -3.54022 2.90087e-06
416 1 19.4223 -2.77207 2.25629 -3.54022 5.06858e-06
417 1 22.0542 -5.84232 -3.16621 -3.54021 9.8849e-07
418 1 21.6141 -4.08772 -1.35871 -3.54022 2.19967e-06
419 1 21.1738 -2.33283 0.448787 -3.54024 5.67928e-06
420 1 20.7334 -0.577742 2.25629 -3.54028 1.30917e-05
421 1 23.3662 -3.6484 -3.16621 -3.54023 2.98902e-06
422 1 22.926 -1.89395 -1.35871 -3.54026 6.89886e-06
423 1 22.4862 -0.139538 0.448787 -3.54028 1.19588e-05
424 1 22.0468 1.61467 2.25629 -3.54029 1.47579e-05
425 1 24.679 -1.45546 -3.16621 -3.54025 6.49893e-06
426 1 24.2397 0.298407 -1.35871 -3.54026 8.31346e-06
427 1 23.801 2.05203 0.448787 -3.54026 7.77133e-06
428 1 23.363 3.80535 2.25629 -3.54025 5.1291e-06
429 1 25.9938 0.736203 -3.16621 -3.54025 4.62516e-06
430 1 25.5556 2.48945 -1.35871 -3.54024 3.29955e-06
431 1 25.1179 4.24247 0.448787 -3.54023 1.72101e-06
432 1 24.6808 5.99534 2.25629 -3.54021 1.11874e-06
433 1 27.3102 2.927 -3.16621 -3.54022 1.13035e-06
434 1 26.8728 4.67991 -1.35871 -3.54021 6.68548e-07
435 1 26.4357 6.43277 0.448787 -3.54021 1.10827e-06
436 1 25.9988 8.18566 2.25629 -3.5402 2.18809e-06
437 1 28.6274 5.11762 -3.16621 -3.54021 5.60924e-07
438 1 28.1902 6.87056 -1.35871 -3.5402 1.21035e-06
439 1 27.753 8.62358 0.448787 -3.5402 1.94694e-06
440 1 27.3158 10.3768 2.25629 -3.5402 2.37956e-06
441 1 29.9443 7.30862 -3.16621 -3.5402 1.15732e-06
442 1 29.5069 9.06178 -1.35871 -3.54021 1.56563e-06
443 1 29.0694 10.8151 0.448787 -3.54021 1.73386e-06
444 1 28.6316 12.5686 2.25629 -3.54021 1.6797e-06
445 1 31.2605 9.50017 -3.16621 -3.54021 1.17489e-06
446 1 30.8227 11.2536 -1.35871 -3.54021 1.19593e-06
447 1 30.3847 13.0072 0.448787 -3.54021 1.06803e-06
448 1 32.5759 11.6922 -3.16621 -3.54021 7.60716e-07
449 1 32.1376 13.4459 -1.35871 -3.54021 6.06924e-07
450 1 33.8906 13.8846 -3.16621 -3.54022 2.98281e-07
451 1 15.0421 14.7542 2.25629 -3.54003 5.84179e-05
452 1 16.7973 -14.6158 0.448787 -3.54015 1.85009e-05
453 1 16.3603 -12.864 2.25629 -3.54023 6.53501e-06
454 1 18.5517 -14.1761 -1.35871 -3.54019 8.79593e-06
455 1 18.1142 -12.4238 0.448787 -3.54019 6.4176e-06
456 1 17.6765 -10.6711 2.25629 -3.54017 1.00142e-05
457 1 20.3055 -13.7366 -3.16621 -3.54018 6.61168e-06
458 1 19.8676 -11.9839 -1.35871 -3.54017 6.61252e-06
459 1 19.4292 -10.2307 0.448787 -3.54017 7.05714e-06
460 1 18.9904 -8.47694 2.25629 -3.54019 5.8928e-06
461 1 21.6204 -11.5441 -3.16621 -3.54018 4.77584e-06
462 1 21.1816 -9.79053 -1.35871 -3.54019 3.55954e-06
463 1 20.7422 -8.0366 0.448787 -3.54021 2.10359e-06
464 1 20.3025 -6.28223 2.25629 -3.54022 1.82707e-06
465 1 22.9337 -9.35068 -3.16621 -3.5402 1.62282e-06
466 1 22.4942 -7.59663 -1.35871 -3.54021 9.10574e-07
467 1 22.0542 -5.84232 0.448787 -3.54021 9.8849e-07
468 1 21.6141 -4.08772 2.25629 -3.54022 2.19967e-06
469 1 24.2462 -7.15703 -3.16621 -3.54021 6.25748e-07
470 1 23.8063 -5.40278 -1.35871 -3.54022 1.14907e-06
471 1 23.3662 -3.6484 0.448787 -3.54023 2.98902e-06
472 1 22.926 -1.89395 2.25629 -3.54026 6.89886e-06
473 1 25.5586 -4.96363 -3.16621 -3.54023 1.82344e-06
474 1 25.1188 -3.20951 -1.35871 -3.54024 3.84008e-06
475 1 24.679 -1.45546 0.448787 -3.54025 6.49893e-06
476 1 24.2397 0.298407 2.25629 -3.54026 8.31346e-06
477 1 26.8719 -2.77098 -3.16621 -3.54024 3.75582e-06
478 1 26.4326 -1.01728 -1.35871 -3.54025 4.77491e-06
479 1 25.9938 0.736203 0.448787 -3.54025 4.62516e-06
480 1 25.5556 2.48945 2.25629 -3.54024 3.29955e-06
481 1 28.1866 -0.579286 -3.16621 -3.54024 2.83362e-06
482 1 27.7482 1.17395 -1.35871 -3.54023 2.08898e-06
483 1 27.3102 2.927 0.448787 -3.54022 1.13035e-06
484 1 26.8728 4.67991 2.25629 -3.54021 6.68548e-07
485 1 29.5026 1.61173 -3.16621 -3.54022 7.66229e-07
486 1 29.0648 3.36471 -1.35871 -3.54021 3.93206e-07
487 1 28.6274 5.11762 0.448787 -3.54021 5.60924e-07
488 1 28.1902 6.87056 2.25629 -3.5402 1.21035e-06
489 1 30.8193 3.80259 -3.16621 -3.54021 2.8815e-07
490 1 30.3818 5.55557 -1.35871 -3.54021 6.46269e-07
491 1 29.9443 7.30862 0.448787 -3.5402 1.15732e-06
492 1 29.5069 9.06178 2.25629 -3.54021 1.56563e-06
493 1 32.1359 5.99371 -3.16621 -3.54021 6.71498e-07
494 1 31.6982 7.74688 -1.35871 -3.54021 9.84477e-07
495 1 31.2605 9.50017 0.448787 -3.54021 1.17489e-06
496 1 30.8227 11.2536 2.25629 -3.54021 1.19593e-06
497 1 33.4519 8.18527 -3.16621 -3.54021 7.7174e-07
498 1 33.014 9.93867 -1.35871 -3.54021 8.22686e-07
499 1 32.5759 11.6922 0.448787 -3.54021 7.60716e-07
500 1 32.1376 13.4459 2.25629 -3.54021 6.06924e-07
501 1 34.7673 10.3773 -3.16621 -3.54021 5.26003e-07
502 1 34.329 12.1309 -1.35871 -3.54021 4.29689e-07
503 1 33.8906 13.8846 0.448787 -3.54022 2.98281e-07
504 1 36.0821 12.5695 -3.16621 -3.54022 2.11732e-07
505 1 35.6435 14.3233 -1.35871 -3.54022 1.25887e-07
506 1 18.5517 -14.1761 2.25629 -3.54019 8.79593e-06
507 1 20.3055 -13.7366 0.448787 -3.54018 6.61168e-06
508 1 19.8676 -11.9839 2.25629 -3.54017 6.61252e-06
509 1 22.4966 14.7596 -3.16621 -3.54019 5.19793e-06
510 1 22.0587 -13.2973 -1.35871 -3.54018 5.08479e-06
511 1 21.6204 -11.5441 0.448787 -3.54018 4.77584e-06
512 1 21.1816 -9.79053 2.25629 -3.54019 3.55954e-06
513 1 23.8116 -12.8582 -3.16621 -3.54019 3.29344e-06
514 1 23.3729 -11.1045 -1.35871 -3.54019 2.6396e-06
515 1 22.9337 -9.35068 0.448787 -3.5402 1.62282e-06
516 1 22.4942 -7.59663 2.25629 -3.54021 9.10574e-07
517 1 25.1252 -10.6652 -3.16621 -3.5402 1.23962e-06
518 1 24.6859 -8.91115 -1.35871 -3.54021 7.63519e-07
519 1 24.2462 -7.15703 0.448787 -3.54021 6.25748e-07
520 1 23.8063 -5.40278 2.25629 -3.54022 1.14907e-06
521 1 26.4381 -8.47192 -3.16621 -3.54021 4.76647e-07
522 1 25.9985 -6.71779 -1.35871 -3.54022 8.08285e-07
523 1 25.5586 -4.96363 0.448787 -3.54023 1.82344e-06
524 1 25.1188 -3.20951 2.25629 -3.54024 3.84008e-06
525 1 27.751 -6.27888 -3.16621 -3.54022 1.19462e-06
526 1 27.3114 -4.52487 -1.35871 -3.54023 2.33755e-06
527 1 26.8719 -2.77098 0.448787 -3.54024 3.75582e-06
528 1 26.4326 -1.01728 2.25629 -3.54025 4.77491e-06
529 1 29.0645 -4.08642 -3.16621 -3.54023 2.28771e-06
530 1 28.6254 -2.33274 -1.35871 -3.54024 2.88345e-06
531 1 28.1866 -0.579286 0.448787 -3.54024 2.83362e-06
532 1 27.7482 1.17395 2.25629 -3.54023 2.08898e-06
533 1 30.3792 -1.89468 -3.16621 -3.54023 1.7972e-06
534 1 29.9407 -0.141383 -1.35871 -3.54023 1.38027e-06
535 1 29.5026 1.61173 0.448787 -3.54022 7.66229e-07
536 1 29.0648 3.36471 2.25629 -3.54021 3.93206e-07
537 1 31.6949 0.29651 -3.16621 -3.54022 5.49049e-07
538 1 31.257 2.04959 -1.35871 -3.54021 2.63654e-07
539 1 30.8193 3.80259 0.448787 -3.54021 2.8815e-07
540 1 30.3818 5.55557 2.25629 -3.54021 6.46269e-07
541 1 33.0112 2.48755 -3.16621 -3.54021 1.63704e-07
542 1 32.5735 4.24062 -1.35871 -3.54021 3.4818e-07
543 1 32.1359 5.99371 0.448787 -3.54021 6.71498e-07
544 1 31.6982 7.74688 2.25629 -3.54021 9.84477e-07
545 1 34.3275 4.67878 -3.16621 -3.54021 3.92969e-07
546 1 33.8897 6.43198 -1.35871 -3.54021 6.11571e-07
547 1 33.4519 8.18527 0.448787 -3.54021 7.7174e-07
548 1 33.014 9.93867 2.25629 -3.54021 8.22686e-07
549 1 35.6434 6.87036 -3.16621 -3.54021 4.98725e-07
550 1 35.2054 8.62375 -1.35871 -3.54021 5.51606e-07
551 1 34.7673 10.3773 0.448787 -3.54021 5.26003e-07
552 1 34.329 12.1309 2.25629 -3.54021 4.29689e-07
553 1 36.9588 9.06228 -3.16621 -3.54021 3.60743e-07
554 1 36.5205 10.8159 -1.35871 -3.54021 3.01664e-07
555 1 36.0821 12.5695 0.448787 -3.54022 2.11732e-07
556 1 35.6435 14.3233 2.25629 -3.54022 1.25887e-07
557 1 38.2736 11.2545 -3.16621 -3.54022 1.49932e-07
558 1 37.8351 13.0082 -1.35871 -3.54022 8.88472e-08
559 1 39.5882 13.4468 -3.16621 -3.54022 3.64272e-08
560 1 22.4966 14.7596 0.448787 -3.54019 5.19793e-06
561 1 22.0587 -13.2973 2.25629 -3.54018 5.08479e-06
562 1 24.2497 -14.6117 -1.35871 -3.5402 3.47518e-06
563 1 23.8116 -12.8582 0.448787 -3.54019 3.29344e-06
564 1 23.3729 -11.1045 2.25629 -3.54019 2.6396e-06
565 1 26.0026 -14.1728 -3.16621 -3.5402 2.14442e-06
566 1 25.5641 -12.4191 -1.35871 -3.5402 1.77268e-06
567 1 25.1252 -10.6652 0.448787 -3.5402 1.23962e-06
568 1 24.6859 -8.91115 2.25629 -3.54021 7.63519e-07
569 1 27.3166 -11.9801 -3.16621 -3.54021 8.10028e-07
570 1 26.8775 -10.226 -1.35871 -3.54021 5.32724e-07
571 1 26.4381 -8.47192 0.448787 -3.54021 4.76647e-07
572 1 25.9985 -6.71779 2.25629 -3.54022 8.08285e-07
573 1 28.6299 -9.78707 -3.16621 -3.54022 2.90654e-07
574 1 28.1905 -8.03297 -1.35871 -3.54022 5.40426e-07
575 1 27.751 -6.27888 0.448787 -3.54022 1.19462e-06
576 1 27.3114 -4.52487 2.25629 -3.54023 2.33755e-06
577 1 29.9432 -7.59425 -3.16621 -3.54023 7.46657e-07
578 1 29.5038 -5.84027 -1.35871 -3.54023 1.45511e-06
579 1 29.0645 -4.08642 0.448787 -3.54023 2.28771e-06
580 1 28.6254 -2.33274 2.25629 -3.54024 2.88345e-06