ITEM: TIMESTEP
0
ITEM: NUMBER OF ATOMS
3656
ITEM: BOX BOUNDS xy xz yz mm pp pp
-1.2522499999999999e+02 1.2522499999999999e+02 0.0000000000000000e+00
-1.4905042650000000e+01 1.4905042650000000e+01 0.0000000000000000e+00
-3.6150000000000002e+00 3.6150000000000002e+00 0.0000000000000000e+00
ITEM: ATOMS id type x y z c_eng c_csym
1 2 0.813753 13.0837 -3.16721 -3.23024 7.12781
2 2 -0.301885 7.71781 -1.35971 -3.28968 9.0385
3 2 0.859579 9.32523 -3.16721 -3.49844 8.37132
4 2 0.865398 11.1899 -1.35971 -3.5277 3.27853
5 2 0.813753 13.0837 0.447794 -3.23024 7.12781
6 1 2.70947 11.5654 -3.16721 -3.4879 0.572043
7 1 2.38823 13.4277 -1.35971 -3.48577 3.42356
8 1 4.08108 13.8257 -3.16721 -3.53646 0.0634745
9 2 0.878643 3.72207 -3.16721 -3.52267 3.66298
10 2 0.873634 5.5498 -1.35971 -3.24362 7.91681
11 2 -0.301885 7.71781 2.25529 -3.28968 9.0385
12 1 2.40963 5.96149 -3.16721 -3.46209 3.0592
13 1 2.03213 7.75561 -1.35971 -3.29359 9.11433
14 2 0.859579 9.32523 0.447794 -3.49844 8.37132
15 2 0.865398 11.1899 2.25529 -3.5277 3.27853
16 1 3.63218 8.20499 -3.16721 -3.47204 0.510863
17 1 3.08963 9.92698 -1.35971 -3.44696 0.563612
18 1 2.70947 11.5654 0.447794 -3.4879 0.572043
19 1 2.38823 13.4277 2.25529 -3.48577 3.42356
20 1 4.93174 10.348 -3.16721 -3.52064 0.0283987
21 1 4.49925 12.0686 -1.35971 -3.53166 0.0359414
22 1 4.08108 13.8257 0.447794 -3.53646 0.0634745
23 1 6.26161 12.5263 -3.16721 -3.53653 0.00252339
24 1 5.80828 14.2846 -1.35971 -3.54575 0.0118165
25 2 0.879815 -1.90335 -3.16721 -3.24391 7.91578
26 2 -0.294307 0.267456 0.447794 -3.29025 9.02782
27 1 2.04059 0.298524 -3.16721 -3.29473 9.12239
28 2 0.860599 1.86797 -1.35971 -3.49623 8.38424
29 2 0.878643 3.72207 0.447794 -3.52267 3.66298
30 2 0.873634 5.5498 2.25529 -3.24362 7.91681
31 1 3.11353 2.45762 -3.16721 -3.44052 0.576962
32 1 2.75769 4.07991 -1.35971 -3.47041 0.697542
33 1 2.40963 5.96149 0.447794 -3.46209 3.0592
34 1 2.03213 7.75561 2.25529 -3.29359 9.11433
35 1 4.52494 4.6022 -3.16721 -3.5334 0.044333
36 1 4.1047 6.35355 -1.35971 -3.53035 0.0761247
37 1 3.63218 8.20499 0.447794 -3.47204 0.510863
38 1 3.08963 9.92698 2.25529 -3.44696 0.563612
39 1 5.81031 6.83333 -3.16721 -3.54562 0.0134789
40 1 5.35216 8.59901 -1.35971 -3.54415 0.0274498
41 1 4.93174 10.348 0.447794 -3.52064 0.0283987
42 1 4.49925 12.0686 2.25529 -3.53166 0.0359414
43 1 7.12148 9.02527 -3.16721 -3.54097 0.00126171
44 1 6.69597 10.7747 -1.35971 -3.53735 0.0022062
45 1 6.26161 12.5263 0.447794 -3.53653 0.00252339
46 1 5.80828 14.2846 2.25529 -3.54575 0.0118165
47 1 8.45089 11.2133 -3.16721 -3.53976 0.000269375
48 1 8.01056 12.9689 -1.35971 -3.54081 0.000597365
49 1 9.76837 13.4045 -3.16721 -3.5408 0.000226932
50 2 -0.293857 -7.1889 -1.35971 -3.28799 9.03155
51 2 0.846666 -5.58304 -3.16721 -3.49503 8.46938
52 2 0.886985 -3.73141 -1.35971 -3.52303 3.73049
53 2 0.879815 -1.90335 0.447794 -3.24391 7.91578
54 2 -0.294307 0.267456 -3.16721 -3.29025 9.02782
55 1 2.76917 -3.36613 -3.16721 -3.4686 0.717709
56 1 2.41874 -1.49319 -1.35971 -3.46322 3.00262
57 1 2.04059 0.298524 0.447794 -3.29473 9.12239
58 2 0.860599 1.86797 2.25529 -3.49623 8.38424
59 1 4.11815 -1.09776 -3.16721 -3.53183 0.0718548
60 1 3.64801 0.74492 -1.35971 -3.47422 0.518832
61 1 3.11353 2.45762 0.447794 -3.44052 0.576962
62 1 2.75769 4.07991 2.25529 -3.47041 0.697542
63 1 5.37548 1.13941 -3.16721 -3.54472 0.0249886
64 1 4.96477 2.88043 -1.35971 -3.51821 0.0370114
65 1 4.52494 4.6022 0.447794 -3.5334 0.044333
66 1 4.1047 6.35355 2.25529 -3.53035 0.0761247
67 1 6.72065 3.31662 -3.16721 -3.53712 0.00447066
68 1 6.28022 5.06857 -1.35971 -3.53561 0.00537344
69 1 5.81031 6.83333 0.447794 -3.54562 0.0134789
70 1 5.35216 8.59901 2.25529 -3.54415 0.0274498
71 1 8.01637 5.52192 -3.16721 -3.54074 0.00106873
72 1 7.56073 7.27727 -1.35971 -3.54243 0.00361932
73 1 7.12148 9.02527 0.447794 -3.54097 0.00126171
74 1 6.69597 10.7747 2.25529 -3.53735 0.0022062
75 1 9.32223 7.71413 -3.16721 -3.54022 0.000404049
76 1 8.88592 9.46226 -1.35971 -3.53949 0.000213514
77 1 8.45089 11.2133 0.447794 -3.53976 0.000269375
78 1 8.01056 12.9689 2.25529 -3.54081 0.000597365
79 1 10.6442 9.90165 -3.16721 -3.53983 2.5922e-05
80 1 10.2055 11.6532 -1.35971 -3.54061 6.17801e-05
81 1 9.76837 13.4045 0.447794 -3.5408 0.000226932
82 1 11.9633 12.091 -3.16721 -3.54043 3.32436e-05
83 1 11.5285 13.8409 -1.35971 -3.5401 4.03294e-05
84 1 13.2862 14.2792 -3.16721 -3.53996 5.60906e-05
85 2 0.916369 -11.126 -3.16721 -3.51676 2.5887
86 2 0.882507 -9.34523 -1.35971 -3.25437 7.7499
87 2 -0.293857 -7.1889 2.25529 -3.28799 9.03155
88 1 2.42668 -8.91072 -3.16721 -3.47218 3.14029
89 1 2.04218 -7.13045 -1.35971 -3.29955 9.14422
90 2 0.846666 -5.58304 0.447794 -3.49503 8.46938
91 2 0.886985 -3.73141 2.25529 -3.52303 3.73049
92 1 3.66006 -6.68569 -3.16721 -3.47481 0.555208
93 1 3.13086 -4.98104 -1.35971 -3.43446 0.61913
94 1 2.76917 -3.36613 0.447794 -3.4686 0.717709
95 1 2.41874 -1.49319 2.25529 -3.46322 3.00262
96 1 4.9823 -4.55837 -3.16721 -3.51733 0.0404381
97 1 4.54105 -2.84216 -1.35971 -3.53306 0.0414519
98 1 4.11815 -1.09776 0.447794 -3.53183 0.0718548
99 1 3.64801 0.74492 2.25529 -3.47422 0.518832
100 1 6.29873 -2.37706 -3.16721 -3.53568 0.00543343
101 1 5.8299 -0.618362 -1.35971 -3.54605 0.0124293
102 1 5.37548 1.13941 0.447794 -3.54472 0.0249886
103 1 4.96477 2.88043 2.25529 -3.51821 0.0370114
104 1 7.58395 -0.175273 -3.16721 -3.5422 0.00270966
105 1 7.14799 1.56829 -1.35971 -3.54011 0.00110285
106 1 6.72065 3.31662 0.447794 -3.53712 0.00447066
107 1 6.28022 5.06857 2.25529 -3.53561 0.00537344
108 1 8.90773 2.00976 -3.16721 -3.5391 0.000747884
109 1 8.4676 3.76232 -1.35971 -3.53934 0.000906112
110 1 8.01637 5.52192 0.447794 -3.54074 0.00106873
111 1 7.56073 7.27727 2.25529 -3.54243 0.00361932
112 1 10.2131 4.20785 -3.16721 -3.54056 0.000151969
113 1 9.7652 5.96294 -1.35971 -3.54113 0.000746819
114 1 9.32223 7.71413 0.447794 -3.54022 0.000404049
115 1 8.88592 9.46226 2.25529 -3.53949 0.000213514
116 1 11.521 6.40076 -3.16721 -3.54043 0.000164812
117 1 11.0819 8.15132 -1.35971 -3.53988 2.85956e-05
118 1 10.6442 9.90165 0.447794 -3.53983 2.5922e-05
119 1 10.2055 11.6532 2.25529 -3.54061 6.17801e-05
120 1 12.839 8.58926 -3.16721 -3.54004 5.74407e-06
121 1 12.4007 10.3404 -1.35971 -3.54025 8.14697e-06
122 1 11.9633 12.091 0.447794 -3.54043 3.32436e-05
123 1 11.5285 13.8409 2.25529 -3.5401 4.03294e-05
124 1 14.1577 10.7781 -3.16721 -3.54026 8.28787e-06
125 1 13.7213 12.5287 -1.35971 -3.54015 1.14887e-05
126 1 13.2862 14.2792 0.447794 -3.53996 5.60906e-05
127 1 15.4779 12.9669 -3.16721 -3.54008 1.73452e-05
128 1 -0.0807513 -14.6568 -0.154706 -2.88537 9.80783
129 1 2.00476 -14.5413 -3.16721 -3.19195 7.71331
130 1 1.04762 -12.8899 -1.35971 -3.4832 5.24215
131 2 0.916369 -11.126 0.447794 -3.51676 2.5887
132 2 0.882507 -9.34523 2.25529 -3.25437 7.7499
133 1 3.15464 -12.4078 -3.16721 -3.47736 0.295365
134 1 2.81073 -10.7611 -1.35971 -3.49002 0.454358
135 1 2.42668 -8.91072 0.447794 -3.47218 3.14029
136 1 2.04218 -7.13045 2.25529 -3.29955 9.14422
137 1 4.55879 -10.2707 -3.16721 -3.53433 0.0283328
138 1 4.13391 -8.51576 -1.35971 -3.53291 0.040863
139 1 3.66006 -6.68569 0.447794 -3.47481 0.555208
140 1 3.13086 -4.98104 2.25529 -3.43446 0.61913
141 1 5.84408 -8.05535 -3.16721 -3.54498 0.00951651
142 1 5.39383 -6.29524 -1.35971 -3.54363 0.0225823
143 1 4.9823 -4.55837 0.447794 -3.51733 0.0404381
144 1 4.54105 -2.84216 2.25529 -3.53306 0.0414519
145 1 7.16402 -5.87603 -3.16721 -3.53981 0.000934944
146 1 6.73893 -4.12627 -1.35971 -3.5368 0.00525467
147 1 6.29873 -2.37706 0.447794 -3.53568 0.00543343
148 1 5.8299 -0.618362 2.25529 -3.54605 0.0124293
149 1 8.48485 -3.68692 -3.16721 -3.53927 0.000905921
150 1 8.03668 -1.9274 -1.35971 -3.54065 0.00120437
151 1 7.58395 -0.175273 0.447794 -3.5422 0.00270966
152 1 7.14799 1.56829 2.25529 -3.54011 0.00110285
153 1 9.785 -1.49008 -3.16721 -3.54096 0.000492162
154 1 9.34474 0.261294 -1.35971 -3.53977 0.000244724
155 1 8.90773 2.00976 0.447794 -3.5391 0.000747884
156 1 8.4676 3.76232 2.25529 -3.53934 0.000906112
157 1 11.0995 0.699073 -3.16721 -3.53961 0.000139634
158 1 10.6589 2.45255 -1.35971 -3.53957 0.000208313
159 1 10.2131 4.20785 0.447794 -3.54056 0.000151969
160 1 9.7652 5.96294 2.25529 -3.54113 0.000746819
161 1 12.408 2.89343 -3.16721 -3.54021 4.34627e-05
162 1 11.9637 4.64817 -1.35971 -3.54058 0.00017888
163 1 11.521 6.40076 0.447794 -3.54043 0.000164812
164 1 11.0819 8.15132 2.25529 -3.53988 2.85956e-05
165 1 13.7175 5.08581 -3.16721 -3.54034 7.2626e-05
166 1 13.2776 6.83801 -1.35971 -3.54013 2.67651e-05
167 1 12.839 8.58926 0.447794 -3.54004 5.74407e-06
168 1 12.4007 10.3404 2.25529 -3.54025 8.14697e-06
169 1 15.0335 7.27515 -3.16721 -3.54014 8.9441e-06
170 1 14.5953 9.02693 -1.35971 -3.54019 6.44542e-06
171 1 14.1577 10.7781 0.447794 -3.54026 8.28787e-06
172 1 13.7213 12.5287 2.25529 -3.54015 1.14887e-05
173 1 16.3513 9.4642 -3.16721 -3.54021 4.71741e-06
174 1 15.9143 11.2157 -1.35971 -3.54017 5.83187e-06
175 1 15.4779 12.9669 0.447794 -3.54008 1.73452e-05
176 1 17.67 11.6535 -3.16721 -3.54014 7.09041e-06
177 1 17.233 13.4055 -1.35971 -3.54013 1.05789e-05
178 1 18.9872 13.8442 -3.16721 -3.54018 4.19636e-06
179 1 -0.0807517 -14.6568 3.46029 -2.88537 9.80783
180 1 2.00476 -14.5413 0.447794 -3.19195 7.71331
181 1 1.04762 -12.8899 2.25529 -3.4832 5.24215
182 1 3.63729 -14.146 -1.35971 -3.49704 0.256781
183 1 3.15464 -12.4078 0.447794 -3.47736 0.295365
184 1 2.81073 -10.7611 2.25529 -3.49002 0.454358
185 1 5.37533 -13.765 -3.16721 -3.54463 0.0168986
186 1 4.98431 -12.0143 -1.35971 -3.52314 0.0275607
187 1 4.55879 -10.2707 0.447794 -3.53433 0.0283328
188 1 4.13391 -8.51576 2.25529 -3.53291 0.040863
189 1 6.73324 -11.5886 -3.16721 -3.53799 0.00445133
190 1 6.30299 -9.82634 -1.35971 -3.53707 0.00318747
191 1 5.84408 -8.05535 0.447794 -3.54498 0.00951651
192 1 5.39383 -6.29524 2.25529 -3.54363 0.0225823
193 1 8.03719 -9.3859 -3.16721 -3.54133 0.000893181
194 1 7.5935 -7.62607 -1.35971 -3.54246 0.00245319
195 1 7.16402 -5.87603 0.447794 -3.53981 0.000934944
196 1 6.73893 -4.12627 2.25529 -3.5368 0.00525467
197 1 9.35136 -7.1965 -3.16721 -3.54016 0.000135469
198 1 8.92051 -5.44294 -1.35971 -3.53928 0.000742091
199 1 8.48485 -3.68692 0.447794 -3.53927 0.000905921
200 1 8.03668 -1.9274 2.25529 -3.54065 0.00120437
201 1 10.6697 -5.00519 -3.16721 -3.53979 0.000202299
202 1 10.2288 -3.24686 -1.35971 -3.54061 0.000104253
203 1 9.785 -1.49008 0.447794 -3.54096 0.000492162
204 1 9.34474 0.261294 2.25529 -3.53977 0.000244724
205 1 11.9774 -2.80953 -3.16721 -3.54062 6.14366e-05
206 1 11.5379 -1.05432 -1.35971 -3.54028 3.75187e-05
207 1 11.0995 0.699073 0.447794 -3.53961 0.000139634
208 1 10.6589 2.45255 2.25529 -3.53957 0.000208313
209 1 13.29 -0.617247 -3.16721 -3.54005 1.38532e-05
210 1 12.8504 1.13794 -1.35971 -3.53994 4.07335e-05
211 1 12.408 2.89343 0.447793 -3.54021 4.34627e-05
212 1 11.9637 4.64817 2.25529 -3.54058 0.00017888
213 1 14.6006 1.57656 -3.16721 -3.54023 9.88076e-06
214 1 14.159 3.33188 -1.35971 -3.54037 5.19998e-05
215 1 13.7175 5.08581 0.447794 -3.54034 7.2626e-05
216 1 13.2776 6.83801 2.25529 -3.54013 2.67651e-05
217 1 15.9117 3.76911 -3.16721 -3.54032 2.8788e-05
218 1 15.4722 5.52266 -1.35971 -3.54022 2.01954e-05
219 1 15.0335 7.27515 0.447794 -3.54014 8.9441e-06
220 1 14.5953 9.02693 2.25529 -3.54019 6.44542e-06
221 1 17.227 5.95944 -3.16721 -3.54021 6.46229e-06
222 1 16.7889 7.71215 -1.35971 -3.5402 4.83437e-06
223 1 16.3513 9.4642 0.447794 -3.54021 4.71741e-06
224 1 15.9143 11.2157 2.25529 -3.54017 5.83187e-06
225 1 18.5441 8.14914 -3.16721 -3.54021 2.11132e-06
226 1 18.1069 9.90148 -1.35971 -3.54018 3.05807e-06
227 1 17.67 11.6535 0.447794 -3.54014 7.09041e-06
228 1 17.233 13.4055 2.25529 -3.54013 1.05789e-05
229 1 19.8618 10.339 -3.16721 -3.54018 2.89132e-06
230 1 19.4246 12.0916 -1.35971 -3.54016 4.96695e-06
231 1 18.9872 13.8442 0.447793 -3.54018 4.19636e-06
232 1 21.1787 12.5298 -3.16721 -3.54019 2.5436e-06
233 1 20.741 14.2828 -1.35971 -3.5402 1.88522e-06
234 1 3.63729 -14.146 2.25529 -3.49704 0.256781
235 1 5.37533 -13.765 0.447794 -3.54463 0.0168986
236 1 4.98431 -12.0143 2.25529 -3.52314 0.0275607
237 1 7.57116 14.7197 -3.16721 -3.54161 0.00169739
238 1 7.14919 -13.3446 -1.35971 -3.53972 0.00243139
239 1 6.73324 -11.5886 0.447794 -3.53799 0.00445133
240 1 6.30299 -9.82634 2.25529 -3.53707 0.00318747
241 1 8.90921 -12.907 -3.16721 -3.53919 0.00113791
242 1 8.47797 -11.1505 -1.35971 -3.53984 0.000974733
243 1 8.03719 -9.3859 0.447794 -3.54133 0.000893181
244 1 7.5935 -7.62607 2.25529 -3.54246 0.00245319
245 1 10.224 -10.7094 -3.16721 -3.5408 0.00015481
246 1 9.7852 -8.95172 -1.35971 -3.54129 0.000419738
247 1 9.35136 -7.1965 0.447794 -3.54016 0.000135469
248 1 8.92051 -5.44294 2.25529 -3.53928 0.000742091
249 1 11.5392 -8.51621 -3.16721 -3.5404 4.33625e-05
250 1 11.1052 -6.76155 -1.35971 -3.53985 0.000140928
251 1 10.6697 -5.00519 0.447794 -3.53979 0.000202299
252 1 10.2288 -3.24686 2.25529 -3.54061 0.000104253
253 1 12.8562 -6.32324 -3.16721 -3.54006 6.14662e-05
254 1 12.4176 -4.56649 -1.35971 -3.54036 2.2023e-05
255 1 11.9774 -2.80953 0.447794 -3.54062 6.14366e-05
256 1 11.5379 -1.05432 2.25529 -3.54028 3.75187e-05
257 1 14.1676 -4.12815 -3.16721 -3.54041 1.18919e-05
258 1 13.7286 -2.37245 -1.35971 -3.54032 5.73718e-06
259 1 13.29 -0.617247 0.447794 -3.54005 1.38532e-05
260 1 12.8504 1.13794 2.25529 -3.53994 4.07335e-05
261 1 15.4802 -1.93457 -3.16721 -3.54019 2.66058e-06
262 1 15.041 -0.179135 -1.35971 -3.54013 5.60709e-06
263 1 14.6006 1.57656 0.447793 -3.54023 9.88076e-06
264 1 14.159 3.33188 2.25529 -3.54037 5.19998e-05
265 1 16.7922 0.259197 -3.16721 -3.54024 3.79988e-06
266 1 16.3519 2.01447 -1.35971 -3.54032 1.60556e-05
267 1 15.9117 3.76911 0.447793 -3.54032 2.8788e-05
268 1 15.4722 5.52266 2.25529 -3.54022 2.01954e-05
269 1 18.1046 2.45196 -3.16721 -3.5403 1.23195e-05
270 1 17.6655 4.20605 -1.35971 -3.54026 1.10378e-05
271 1 17.227 5.95944 0.447793 -3.54021 6.46229e-06
272 1 16.7889 7.71215 2.25529 -3.5402 4.83437e-06
273 1 19.4196 4.64306 -3.16721 -3.54024 4.21502e-06
274 1 18.9816 6.39633 -1.35971 -3.54022 2.47669e-06
275 1 18.5441 8.14914 0.447793 -3.54021 2.11132e-06
276 1 18.1069 9.90148 2.25529 -3.54018 3.05807e-06
277 1 20.7363 6.83345 -3.16721 -3.54022 8.58146e-07
278 1 20.2989 8.58635 -1.35971 -3.5402 1.09028e-06
279 1 19.8618 10.339 0.447793 -3.54018 2.89132e-06
280 1 19.4246 12.0916 2.25529 -3.54016 4.96695e-06
281 1 22.0534 9.02387 -3.16721 -3.5402 1.10172e-06
282 1 21.6162 10.7768 -1.35971 -3.54019 2.20978e-06
283 1 21.1787 12.5298 0.447793 -3.54019 2.5436e-06
284 1 20.741 14.2828 2.25529 -3.5402 1.88522e-06
285 1 23.3701 11.2149 -3.16721 -3.5402 1.39154e-06
286 1 22.9324 12.9681 -1.35971 -3.54021 1.33451e-06
287 1 24.6859 13.4065 -3.16721 -3.54021 8.39226e-07
288 1 7.57116 14.7197 0.447794 -3.54161 0.00169739
289 1 7.14919 -13.3446 2.25529 -3.53972 0.00243139
290 1 9.33716 -14.6567 -1.35971 -3.53956 0.00021314
291 1 8.90921 -12.907 0.447794 -3.53919 0.00113791
292 1 8.47797 -11.1505 2.25529 -3.53984 0.000974733
293 1 11.096 -14.2189 -3.16721 -3.53962 0.000224224
294 1 10.662 -12.466 -1.35971 -3.53977 0.000247217
295 1 10.224 -10.7094 0.447794 -3.5408 0.00015481
296 1 9.7852 -8.95172 2.25529 -3.54129 0.000419738
297 1 12.4135 -12.0253 -3.16721 -3.54032 2.0133e-05
298 1 11.9753 -10.2706 -1.35971 -3.54063 6.00608e-05
299 1 11.5392 -8.51621 0.447794 -3.5404 4.33625e-05
300 1 11.1052 -6.76155 2.25529 -3.53985 0.000140928
301 1 13.729 -9.83217 -3.16721 -3.54029 7.56891e-06
302 1 13.2927 -8.07833 -1.35971 -3.54009 3.45473e-05
303 1 12.8562 -6.32324 0.447794 -3.54006 6.14662e-05
304 1 12.4176 -4.56649 2.25529 -3.54036 2.2023e-05
305 1 15.045 -7.63908 -3.16721 -3.54013 1.86087e-05
306 1 14.6067 -5.88399 -1.35971 -3.54026 1.17551e-05
307 1 14.1676 -4.12815 0.447794 -3.54041 1.18919e-05
308 1 13.7286 -2.37245 2.25529 -3.54032 5.73718e-06
309 1 16.3581 -5.44478 -3.16721 -3.54029 3.77705e-06
310 1 15.9191 -3.68974 -1.35971 -3.54029 3.45568e-06
311 1 15.4802 -1.93457 0.447793 -3.54019 2.66058e-06
312 1 15.041 -0.179135 2.25529 -3.54013 5.60709e-06
313 1 17.671 -3.25103 -3.16721 -3.54022 1.70231e-06
314 1 17.2318 -1.49608 -1.35971 -3.5402 2.22439e-06
315 1 16.7922 0.259197 0.447793 -3.54024 3.79988e-06
316 1 16.3519 2.01447 2.25529 -3.54032 1.60556e-05
317 1 18.9837 -1.05747 -3.16721 -3.54024 2.46866e-06
318 1 18.5441 0.69734 -1.35971 -3.54028 6.9465e-06
319 1 18.1046 2.45196 0.447793 -3.5403 1.23195e-05
320 1 17.6655 4.20605 2.25529 -3.54026 1.10378e-05
321 1 20.297 1.13529 -3.16721 -3.54027 6.17498e-06
322 1 19.858 2.88936 -1.35971 -3.54026 6.43051e-06
323 1 19.4196 4.64306 0.447793 -3.54024 4.21502e-06
324 1 18.9816 6.39633 2.25529 -3.54022 2.47669e-06
325 1 21.612 3.32683 -3.16721 -3.54024 2.93797e-06
326 1 21.1739 5.08027 -1.35971 -3.54023 1.65364e-06
327 1 20.7363 6.83345 0.447793 -3.54022 8.58146e-07
328 1 20.2989 8.58635 2.25529 -3.5402 1.09028e-06
329 1 22.9283 5.51771 -3.16721 -3.54023 5.87277e-07
330 1 22.4908 7.27084 -1.35971 -3.54021 4.45978e-07
331 1 22.0534 9.02387 0.447793 -3.5402 1.10172e-06
332 1 21.6162 10.7768 2.25529 -3.54019 2.20978e-06
333 1 24.245 7.70854 -3.16721 -3.54021 5.13673e-07
334 1 23.8076 9.46169 -1.35971 -3.5402 1.03667e-06
335 1 23.3701 11.2149 0.447793 -3.5402 1.39154e-06
336 1 22.9324 12.9681 2.25529 -3.54021 1.33451e-06
337 1 25.5614 9.89975 -3.16721 -3.54021 8.1214e-07
338 1 25.1237 11.6531 -1.35971 -3.54021 8.78074e-07
339 1 24.6859 13.4065 0.447793 -3.54021 8.39226e-07
340 1 26.8772 12.0914 -3.16721 -3.54021 6.03446e-07
341 1 26.4392 13.8449 -1.35971 -3.54021 5.74264e-07
342 1 28.1924 14.2834 -3.16721 -3.54021 3.70995e-07
343 1 9.33716 -14.6567 2.25529 -3.53956 0.00021314
344 1 11.096 -14.2189 0.447794 -3.53962 0.000224224
345 1 10.662 -12.466 2.25529 -3.53977 0.000247217
346 1 12.8507 -13.779 -1.35971 -3.53998 7.33946e-05
347 1 12.4135 -12.0253 0.447794 -3.54032 2.0133e-05
348 1 11.9753 -10.2706 2.25529 -3.54063 6.00608e-05
349 1 14.6042 -13.339 -3.16721 -3.54022 8.3849e-06
350 1 14.1663 -11.5857 -1.35971 -3.54036 5.00295e-06
351 1 13.729 -9.83217 0.447794 -3.54029 7.56891e-06
352 1 13.2927 -8.07833 2.25529 -3.54009 3.45473e-05
353 1 15.92 -11.1464 -3.16721 -3.54025 1.13365e-06
354 1 15.4825 -9.3931 -1.35971 -3.54016 8.23334e-06
355 1 15.045 -7.63908 0.447794 -3.54013 1.86087e-05
356 1 14.6067 -5.88399 2.25529 -3.54026 1.17551e-05
357 1 17.2354 -8.9536 -3.16721 -3.54017 5.70196e-06
358 1 16.797 -7.19949 -1.35971 -3.54021 4.65291e-06
359 1 16.3581 -5.44478 0.447793 -3.54029 3.77705e-06
360 1 15.9191 -3.68974 2.25529 -3.54029 3.45568e-06
361 1 18.5491 -6.76002 -3.16721 -3.54024 1.16895e-06
362 1 18.1101 -5.00566 -1.35971 -3.54025 1.39165e-06
363 1 17.671 -3.25103 0.447793 -3.54022 1.70231e-06
364 1 17.2318 -1.49608 2.25529 -3.5402 2.22439e-06
365 1 19.8624 -4.56656 -3.16721 -3.54022 6.5232e-07
366 1 19.4232 -2.81215 -1.35971 -3.54021 1.15563e-06
367 1 18.9837 -1.05747 0.447793 -3.54024 2.46866e-06
368 1 18.5441 0.69734 2.25529 -3.54028 6.9465e-06
369 1 21.1756 -2.37333 -3.16721 -3.54023 1.3365e-06
370 1 20.7362 -0.619005 -1.35971 -3.54025 3.49011e-06
371 1 20.297 1.13529 0.447793 -3.54027 6.17498e-06
372 1 19.858 2.88936 2.25529 -3.54026 6.43051e-06
373 1 22.4893 -0.180726 -3.16721 -3.54025 3.17659e-06
374 1 22.0504 1.57315 -1.35971 -3.54025 3.7704e-06
375 1 21.612 3.32683 0.447793 -3.54024 2.93797e-06
376 1 21.1739 5.08027 2.25529 -3.54023 1.65364e-06
377 1 23.8043 2.011 -3.16721 -3.54024 1.88823e-06
378 1 23.3661 3.76442 -1.35971 -3.54023 1.2067e-06
379 1 22.9283 5.51771 0.447793 -3.54023 5.87277e-07
380 1 22.4908 7.27084 2.25529 -3.54021 4.45978e-07
381 1 25.1203 4.20217 -3.16721 -3.54022 4.23499e-07
382 1 24.6825 5.95538 -1.35971 -3.54022 2.76126e-07
383 1 24.245 7.70854 0.447793 -3.54021 5.13673e-07
384 1 23.8076 9.46169 2.25529 -3.5402 1.03667e-06
385 1 26.4367 6.39326 -3.16721 -3.54021 2.74234e-07
386 1 25.9991 8.14648 -1.35971 -3.54021 5.60367e-07
387 1 25.5614 9.89975 0.447793 -3.54021 8.1214e-07
388 1 25.1237 11.6531 2.25529 -3.54021 8.78074e-07
389 1 27.7529 8.58462 -3.16721 -3.54021 4.95115e-07
390 1 27.3151 10.338 -1.35971 -3.54021 5.96536e-07
391 1 26.8772 12.0914 0.447793 -3.54021 6.03446e-07
392 1 26.4392 13.8449 2.25529 -3.54021 5.74264e-07
393 1 29.0686 10.7763 -3.16721 -3.54021 4.29667e-07
394 1 28.6306 12.5298 -1.35971 -3.54021 4.15213e-07
395 1 28.1924 14.2834 0.447793 -3.54021 3.70995e-07
396 1 30.3838 12.9683 -3.16721 -3.54022 2.66719e-07
397 1 12.8507 -13.779 2.25529 -3.53998 7.33946e-05
398 1 15.0414 14.7186 -1.35971 -3.54007 2.52096e-05
399 1 14.6042 -13.339 0.447794 -3.54022 8.3849e-06
400 1 14.1663 -11.5857 2.25529 -3.54036 5.00295e-06
401 1 16.7956 -14.6522 -3.16721 -3.54018 5.76839e-06
402 1 16.3578 -12.8994 -1.35971 -3.54026 8.30347e-07
403 1 15.92 -11.1464 0.447794 -3.54025 1.13365e-06
404 1 15.4825 -9.3931 2.25529 -3.54016 8.23334e-06
405 1 18.1115 -12.4602 -3.16721 -3.54022 9.58022e-07
406 1 17.6735 -10.7071 -1.35971 -3.54019 2.69677e-06
407 1 17.2354 -8.9536 0.447794 -3.54017 5.70196e-06
408 1 16.797 -7.19949 2.25529 -3.54021 4.65291e-06
409 1 19.4266 -10.2677 -3.16721 -3.54019 2.26368e-06
410 1 18.988 -8.51406 -1.35971 -3.5402 1.87002e-06
411 1 18.5491 -6.76002 0.447793 -3.54024 1.16895e-06
412 1 18.1101 -5.00566 2.25529 -3.54025 1.39165e-06
413 1 20.7406 -8.07469 -3.16721 -3.54022 5.17386e-07
414 1 20.3016 -6.32073 -1.35971 -3.54023 4.0537e-07
415 1 19.8624 -4.56656 0.447793 -3.54022 6.5232e-07
416 1 19.4232 -2.81215 2.25529 -3.54021 1.15563e-06
417 1 22.0542 -5.88161 -3.16721 -3.54022 2.23985e-07
418 1 21.6149 -4.12755 -1.35971 -3.54022 4.89137e-07
419 1 21.1756 -2.37333 0.447793 -3.54023 1.3365e-06
420 1 20.7362 -0.619005 2.25529 -3.54025 3.49011e-06
421 1 23.3677 -3.68871 -3.16721 -3.54022 7.07474e-07
422 1 22.9284 -1.93471 -1.35971 -3.54024 1.76737e-06
423 1 22.4893 -0.180726 0.447793 -3.54025 3.17659e-06
424 1 22.0504 1.57315 2.25529 -3.54025 3.7704e-06
425 1 24.6816 -1.49629 -3.16721 -3.54024 1.68248e-06
426 1 24.2428 0.257418 -1.35971 -3.54024 2.11765e-06
427 1 23.8043 2.011 0.447793 -3.54024 1.88823e-06
428 1 23.3661 3.76442 2.25529 -3.54023 1.2067e-06
429 1 25.9966 0.695491 -3.16721 -3.54023 1.14247e-06
430 1 25.5583 2.44888 -1.35971 -3.54023 7.98517e-07
431 1 25.1203 4.20217 0.447793 -3.54022 4.23499e-07
432 1 24.6825 5.95538 2.25529 -3.54022 2.76126e-07
433 1 27.3123 2.88684 -3.16721 -3.54022 2.79084e-07
434 1 26.8744 4.64006 -1.35971 -3.54022 1.66275e-07
435 1 26.4367 6.39326 0.447793 -3.54021 2.74234e-07
436 1 25.9991 8.14648 2.25529 -3.54021 5.60367e-07
437 1 28.6284 5.0781 -3.16721 -3.54021 1.39512e-07
438 1 28.1907 6.83133 -1.35971 -3.54021 3.05535e-07
439 1 27.7529 8.58462 0.447793 -3.54021 4.95115e-07
440 1 27.3151 10.338 2.25529 -3.54021 5.96536e-07
441 1 29.9445 7.26954 -3.16721 -3.54021 2.9168e-07
442 1 29.5066 9.02289 -1.35971 -3.54021 3.92806e-07
443 1 29.0686 10.7763 0.447793 -3.54021 4.29667e-07
444 1 28.6306 12.5298 2.25529 -3.54021 4.15213e-07
445 1 31.2601 9.46126 -3.16721 -3.54021 2.93397e-07
446 1 30.822 11.2148 -1.35971 -3.54021 2.97175e-07
447 1 30.3838 12.9683 0.447793 -3.54022 2.66719e-07
448 1 32.5753 11.6532 -3.16721 -3.54022 1.89645e-07
449 1 32.137 13.4069 -1.35971 -3.54022 1.52872e-07
450 1 33.8902 13.8454 -3.16721 -3.54022 7.48551e-08
451 1 15.0414 14.7186 2.25529 -3.54007 2.52096e-05
452 1 16.7956 -14.6522 0.447794 -3.54018 5.76839e-06
453 1 16.3578 -12.8994 2.25529 -3.54026 8.30347e-07
454 1 18.5494 -14.2131 -1.35971 -3.54021 1.77349e-06
455 1 18.1115 -12.4602 0.447794 -3.54022 9.58022e-07
456 1 17.6735 -10.7071 2.25529 -3.54019 2.69677e-06
457 1 20.303 -13.7742 -3.16721 -3.54021 1.35624e-06
458 1 19.8649 -12.021 -1.35971 -3.5402 1.61765e-06
459 1 19.4266 -10.2677 0.447793 -3.54019 2.26368e-06
460 1 18.988 -8.51406 2.25529 -3.5402 1.87002e-06
461 1 21.6181 -11.582 -3.16721 -3.5402 1.33132e-06
462 1 21.1795 -9.82845 -1.35971 -3.5402 1.03715e-06
463 1 20.7406 -8.07469 0.447793 -3.54022 5.17386e-07
464 1 20.3016 -6.32073 2.25529 -3.54023 4.0537e-07
465 1 22.9323 -9.38933 -3.16721 -3.54021 4.0838e-07
466 1 22.4933 -7.63553 -1.35971 -3.54022 2.06213e-07
467 1 22.0542 -5.88161 0.447793 -3.54022 2.23985e-07
468 1 21.6149 -4.12755 2.25529 -3.54022 4.89137e-07
469 1 24.246 -7.19656 -3.16721 -3.54022 1.50159e-07
470 1 23.8069 -5.44267 -1.35971 -3.54022 2.65832e-07
471 1 23.3677 -3.68871 0.447793 -3.54022 7.07474e-07
472 1 22.9284 -1.93471 2.25529 -3.54024 1.76737e-06
473 1 25.5598 -5.00392 -3.16721 -3.54022 4.395e-07
474 1 25.1207 -3.25008 -1.35971 -3.54023 9.65487e-07
475 1 24.6816 -1.49629 0.447793 -3.54024 1.68248e-06
476 1 24.2428 0.257418 2.25529 -3.54024 2.11765e-06
477 1 26.874 -2.81164 -3.16721 -3.54023 9.55898e-07
478 1 26.4352 -1.05802 -1.35971 -3.54023 1.21006e-06
479 1 25.9966 0.695491 0.447793 -3.54023 1.14247e-06
480 1 25.5583 2.44888 2.25529 -3.54023 7.98517e-07
481 1 28.1889 -0.619848 -3.16721 -3.54023 7.0422e-07
482 1 27.7505 1.13354 -1.35971 -3.54022 5.13588e-07
483 1 27.3123 2.88684 0.447793 -3.54022 2.79084e-07
484 1 26.8744 4.64006 2.25529 -3.54022 1.66275e-07
485 1 29.5044 1.57161 -3.16721 -3.54022 1.89997e-07
486 1 29.0664 3.32487 -1.35971 -3.54022 9.8358e-08
487 1 28.6284 5.0781 0.447793 -3.54021 1.39512e-07
488 1 28.1907 6.83133 2.25529 -3.54021 3.05535e-07
489 1 30.8203 3.76299 -3.16721 -3.54021 7.1926e-08
490 1 30.3824 5.51625 -1.35971 -3.54021 1.62615e-07
491 1 29.9445 7.26954 0.447793 -3.54021 2.9168e-07
492 1 29.5066 9.02289 2.25529 -3.54021 3.92806e-07
493 1 32.1361 5.95449 -3.16721 -3.54021 1.68704e-07
494 1 31.6981 7.70785 -1.35971 -3.54021 2.45879e-07
495 1 31.2601 9.46126 0.447793 -3.54021 2.93397e-07
496 1 30.822 11.2148 2.25529 -3.54021 2.97175e-07
497 1 33.4517 8.14622 -3.16721 -3.54021 1.93217e-07
498 1 33.0135 9.89969 -1.35971 -3.54021 2.05023e-07
499 1 32.5753 11.6532 0.447793 -3.54022 1.89645e-07
500 1 32.137 13.4069 2.25529 -3.54022 1.52872e-07
501 1 34.7669 10.3382 -3.16721 -3.54022 1.31389e-07
502 1 34.3286 12.0917 -1.35971 -3.54022 1.07607e-07
503 1 33.8902 13.8454 0.447793 -3.54022 7.48551e-08
504 1 36.0819 12.5302 -3.16721 -3.54022 5.30737e-08
505 1 35.6434 14.2839 -1.35971 -3.54022 3.1629e-08
506 1 18.5494 -14.2131 2.25529 -3.54021 1.77349e-06
507 1 20.303 -13.7742 0.447793 -3.54021 1.35624e-06
508 1 19.8649 -12.021 2.25529 -3.5402 1.61765e-06
509 1 22.4945 14.7214 -3.16721 -3.54021 1.18703e-06
510 1 22.0564 -13.3354 -1.35971 -3.5402 1.22608e-06
511 1 21.6181 -11.582 0.447793 -3.5402 1.33132e-06
512 1 21.1795 -9.82845 2.25529 -3.5402 1.03715e-06
513 1 23.8095 -12.8966 -3.16721 -3.5402 8.59261e-07
514 1 23.371 -11.143 -1.35971 -3.5402 7.14252e-07
515 1 22.9323 -9.38933 0.447793 -3.54021 4.0838e-07
516 1 22.4933 -7.63553 2.25529 -3.54022 2.06213e-07
517 1 25.1239 -10.7042 -3.16721 -3.54021 3.14572e-07
518 1 24.6851 -8.95039 -1.35971 -3.54021 1.83295e-07
519 1 24.246 -7.19656 0.447793 -3.54022 1.50159e-07
520 1 23.8069 -5.44267 2.25529 -3.54022 2.65832e-07
521 1 26.4379 -8.5116 -3.16721 -3.54022 1.17451e-07
522 1 25.9989 -6.75776 -1.35971 -3.54022 1.95715e-07
523 1 25.5598 -5.00392 0.447793 -3.54022 4.395e-07
524 1 25.1207 -3.25008 2.25529 -3.54023 9.65487e-07
525 1 27.7519 -6.31914 -3.16721 -3.54022 2.92088e-07
526 1 27.3129 -4.56536 -1.35971 -3.54023 5.82385e-07
527 1 26.874 -2.81164 0.447793 -3.54023 9.55898e-07
528 1 26.4352 -1.05802 2.25529 -3.54023 1.21006e-06
529 1 29.0662 -4.12695 -3.16721 -3.54023 5.77408e-07
530 1 28.6274 -2.37335 -1.35971 -3.54023 7.27735e-07
531 1 28.1889 -0.619848 0.447793 -3.54023 7.0422e-07
532 1 27.7505 1.13354 2.25529 -3.54022 5.13588e-07
533 1 30.3811 -1.93514 -3.16721 -3.54022 4.48966e-07
534 1 29.9426 -0.181719 -1.35971 -3.54022 3.42742e-07
535 1 29.5044 1.57161 0.447793 -3.54022 1.89997e-07
536 1 29.0664 3.32487 2.25529 -3.54022 9.8358e-08
537 1 31.6965 0.256404 -3.16721 -3.54022 1.36988e-07
538 1 31.2583 2.00972 -1.35971 -3.54022 6.56318e-08
539 1 30.8203 3.76299 0.447793 -3.54021 7.1926e-08
540 1 30.3824 5.51625 2.25529 -3.54021 1.62615e-07
541 1 33.0122 2.44787 -3.16721 -3.54022 4.08096e-08
542 1 32.5741 4.20118 -1.35971 -3.54021 8.70034e-08
543 1 32.1361 5.95449 0.447793 -3.54021 1.68704e-07
544 1 31.6981 7.70785 2.25529 -3.54021 2.45879e-07
545 1 34.3279 4.63943 -3.16721 -3.54021 9.82721e-08
546 1 33.8898 6.39281 -1.35971 -3.54021 1.52978e-07
547 1 33.4517 8.14622 0.447793 -3.54021 1.93217e-07
548 1 33.0135 9.89969 2.25529 -3.54021 2.05023e-07
549 1 35.6433 6.83117 -3.16721 -3.54021 1.25363e-07
550 1 35.2052 8.58464 -1.35971 -3.54021 1.3757e-07
551 1 34.7669 10.3382 0.447793 -3.54022 1.31389e-07
552 1 34.3286 12.0917 2.25529 -3.54022 1.07607e-07
553 1 36.9586 9.02308 -3.16721 -3.54022 8.98159e-08
554 1 36.5202 10.7766 -1.35971 -3.54022 7.55428e-08
555 1 36.0819 12.5302 0.447793 -3.54022 5.30737e-08
556 1 35.6434 14.2839 2.25529 -3.54022 3.1629e-08
557 1 38.2735 11.2151 -3.16721 -3.54022 3.77451e-08
558 1 37.8351 12.9687 -1.35971 -3.54022 2.2047e-08
559 1 39.5884 13.4072 -3.16721 -3.54022 9.07236e-09
560 1 22.4945 14.7214 0.447793 -3.54021 1.18703e-06
561 1 22.0564 -13.3354 2.25529 -3.5402 1.22608e-06
562 1 24.2478 -14.6501 -1.35971 -3.54021 8.43482e-07
563 1 23.8095 -12.8966 0.447793 -3.5402 8.59261e-07
564 1 23.371 -11.143 2.25529 -3.5402 7.14252e-07
565 1 26.001 -14.2116 -3.16721 -3.54021 5.45436e-07
566 1 25.5625 -12.4579 -1.35971 -3.54021 4.62701e-07
567 1 25.1239 -10.7042 0.447793 -3.54021 3.14572e-07
568 1 24.6851 -8.95039 2.25529 -3.54021 1.83295e-07
569 1 27.3155 -12.0192 -3.16721 -3.54021 2.04984e-07
570 1 26.8768 -10.2654 -1.35971 -3.54022 1.31161e-07
571 1 26.4379 -8.5116 0.447793 -3.54022 1.17451e-07
572 1 25.9989 -6.75776 2.25529 -3.54022 1.95715e-07
573 1 28.6297 -9.82677 -3.16721 -3.54022 7.19122e-08
574 1 28.1908 -8.07295 -1.35971 -3.54022 1.32889e-07
575 1 27.7519 -6.31914 0.447793 -3.54022 2.92088e-07
576 1 27.3129 -4.56536 2.25529 -3.54023 5.82385e-07
577 1 29.9439 -7.63441 -3.16721 -3.54022 1.84744e-07
578 1 29.505 -5.88065 -1.35971 -3.54022 3.63655e-07
579 1 29.0662 -4.12695 0.447793 -3.54023 5.77408e-07
580 1 28.6274 -2.37335 2.25529 -3.54023 7.27735e-07
581 1 31.2583 -5.44228 -3.16721 -3.54022 3.50124e-07