ITEM: TIMESTEP
0
ITEM: NUMBER OF ATOMS
3656
ITEM: BOX BOUNDS xy xz yz mm pp pp
-1.2522499999999999e+02 1.2522499999999999e+02 0.0000000000000000e+00
-1.4905042650000000e+01 1.4905042650000000e+01 0.0000000000000000e+00
-3.6150000000000002e+00 3.6150000000000002e+00 0.0000000000000000e+00
ITEM: ATOMS id type x y z c_eng c_csym
1 1 0.664422 13.393 -3.16026 -3.46154 2.97382
2 1 0.289722 7.73493 -3.16026 -3.29222 9.0754
3 1 1.35523 9.89389 -3.16026 -3.44354 0.553907
4 1 1.00074 11.5166 -1.35276 -3.4744 0.668447
5 1 0.664422 13.393 0.454743 -3.46154 2.97382
6 1 2.77481 12.0282 -3.16026 -3.53301 0.0442448
7 1 2.36022 13.7791 -1.35276 -3.53092 0.075692
8 1 4.06862 14.2523 -3.16026 -3.54596 0.0130745
9 1 1.00074 4.06404 -3.16026 -3.4744 0.668445
10 1 0.664422 5.94048 -1.35276 -3.46154 2.97382
11 1 0.289722 7.73493 0.454743 -3.29222 9.0754
12 1 2.36022 6.3266 -3.16026 -3.53092 0.0756916
13 1 1.89361 8.17612 -1.35276 -3.47296 0.506625
14 1 1.35523 9.89389 0.454743 -3.44354 0.553907
15 1 1.00074 11.5166 2.26224 -3.4744 0.668447
16 1 3.617 8.56341 -3.16026 -3.54475 0.0278341
17 1 3.20837 10.3077 -1.35276 -3.51869 0.036621
18 1 2.77481 12.0282 0.454743 -3.53301 0.0442448
19 1 2.36022 13.7791 2.26224 -3.53092 0.075692
20 1 4.96718 10.7356 -3.16026 -3.53707 0.00434155
21 1 4.53264 12.4882 -1.35276 -3.53557 0.00544667
22 1 4.06862 14.2523 0.454743 -3.54596 0.0130745
23 1 6.27062 12.936 -3.16026 -3.54081 0.000897119
24 1 5.82117 14.6911 -1.35276 -3.54249 0.00306264
25 1 0.664422 -1.51204 -3.16026 -3.46154 2.97383
26 1 0.289722 0.282403 -1.35276 -3.29222 9.0754
27 1 1.89361 0.723597 -3.16026 -3.47296 0.506627
28 1 1.35523 2.44137 -1.35276 -3.44354 0.553904
29 1 1.00074 4.06404 0.454743 -3.4744 0.668445
30 1 0.664422 5.94048 2.26224 -3.46154 2.97382
31 1 3.20837 2.85513 -3.16026 -3.51869 0.036621
32 1 2.77481 4.57566 -1.35276 -3.53301 0.0442448
33 1 2.36022 6.3266 0.454743 -3.53092 0.0756916
34 1 1.89361 8.17612 2.26224 -3.47296 0.506625
35 1 4.53264 5.03566 -3.16026 -3.53557 0.00544671
36 1 4.06862 6.79975 -1.35276 -3.54596 0.0130743
37 1 3.617 8.56341 0.454743 -3.54475 0.0278341
38 1 3.20837 10.3077 2.26224 -3.51869 0.036621
39 1 5.82117 7.23863 -3.16026 -3.54249 0.00306272
40 1 5.38898 8.98546 -1.35276 -3.54048 0.00121156
41 1 4.96718 10.7356 0.454743 -3.53707 0.00434155
42 1 4.53264 12.4882 2.26224 -3.53557 0.00544667
43 1 7.15039 9.42206 -3.16026 -3.53924 0.00067551
44 1 6.71586 11.1757 -1.35276 -3.53937 0.000902755
45 1 6.27062 12.936 0.454743 -3.54081 0.000897119
46 1 5.82117 14.6911 2.26224 -3.54249 0.00306264
47 1 8.46289 11.6178 -3.16026 -3.54064 9.26547e-05
48 1 8.02045 13.3734 -1.35276 -3.54115 0.00049249
49 1 9.7761 13.8096 -3.16026 -3.54037 4.14811e-05
50 1 0.289722 -7.17012 -3.16026 -3.29222 9.07541
51 1 1.35523 -5.01115 -3.16026 -3.44354 0.553905
52 1 1.00074 -3.38848 -1.35276 -3.4744 0.66845
53 1 0.664422 -1.51204 0.454743 -3.46154 2.97383
54 1 0.289722 0.282403 2.26224 -3.29222 9.0754
55 1 2.77481 -2.87686 -3.16026 -3.53301 0.0442447
56 1 2.36022 -1.12592 -1.35276 -3.53092 0.0756929
57 1 1.89361 0.723597 0.454743 -3.47296 0.506627
58 1 1.35523 2.44137 2.26224 -3.44354 0.553904
59 1 4.06862 -0.652774 -3.16026 -3.54596 0.0130743
60 1 3.617 1.11088 -1.35276 -3.54475 0.0278342
61 1 3.20837 2.85513 0.454743 -3.51869 0.036621
62 1 2.77481 4.57566 2.26224 -3.53301 0.0442448
63 1 5.38898 1.53294 -3.16026 -3.54048 0.00121142
64 1 4.96718 3.28308 -1.35276 -3.53707 0.00434147
65 1 4.53264 5.03566 0.454743 -3.53557 0.00544671
66 1 4.06862 6.79975 2.26224 -3.54596 0.0130743
67 1 6.71586 3.72321 -3.16026 -3.53937 0.00090269
68 1 6.27062 5.4835 -1.35276 -3.54081 0.000897031
69 1 5.82117 7.23863 0.454743 -3.54249 0.00306272
70 1 5.38898 8.98546 2.26224 -3.54048 0.00121156
71 1 8.02045 5.92083 -3.16026 -3.54115 0.00049243
72 1 7.58297 7.67257 -1.35276 -3.54003 0.00019117
73 1 7.15039 9.42206 0.454743 -3.53924 0.00067551
74 1 6.71586 11.1757 2.26224 -3.53937 0.000902755
75 1 9.34023 8.10919 -3.16026 -3.53973 9.04574e-05
76 1 8.90367 9.86223 -1.35276 -3.53967 0.00018108
77 1 8.46289 11.6178 0.454743 -3.54064 9.26547e-05
78 1 8.02045 13.3734 2.26224 -3.54115 0.00049249
79 1 10.6548 10.3022 -3.16026 -3.54027 1.1324e-05
80 1 10.2146 12.0565 -1.35276 -3.54061 7.33131e-05
81 1 9.7761 13.8096 0.454743 -3.54037 4.14811e-05
82 1 11.9687 12.4942 -3.16026 -3.54031 9.69755e-06
83 1 11.5312 14.2471 -1.35276 -3.54007 1.11008e-05
84 1 13.2849 14.6856 -3.16026 -3.54011 5.97028e-06
85 1 1.00074 -10.841 -3.16026 -3.4744 0.668447
86 1 0.664422 -8.96456 -1.35276 -3.46154 2.97382
87 1 0.289722 -7.17012 0.454743 -3.29222 9.07541
88 1 2.36022 -8.57844 -3.16026 -3.53092 0.0756922
89 1 1.89361 -6.72892 -1.35276 -3.47296 0.506627
90 1 1.35523 -5.01115 0.454743 -3.44354 0.553905
91 1 1.00074 -3.38848 2.26224 -3.4744 0.66845
92 1 3.617 -6.34164 -3.16026 -3.54475 0.0278342
93 1 3.20837 -4.59739 -1.35276 -3.51869 0.0366212
94 1 2.77481 -2.87686 0.454743 -3.53301 0.0442447
95 1 2.36022 -1.12592 2.26224 -3.53092 0.0756929
96 1 4.96718 -4.16944 -3.16026 -3.53707 0.00434142
97 1 4.53264 -2.41686 -1.35276 -3.53557 0.00544675
98 1 4.06862 -0.652774 0.454743 -3.54596 0.0130743
99 1 3.617 1.11088 2.26224 -3.54475 0.0278342
100 1 6.27062 -1.96902 -3.16026 -3.54081 0.000897078
101 1 5.82117 -0.213893 -1.35276 -3.54249 0.00306279
102 1 5.38898 1.53294 0.454743 -3.54048 0.00121142
103 1 4.96718 3.28308 2.26224 -3.53707 0.00434147
104 1 7.58297 0.220045 -3.16026 -3.54003 0.000191164
105 1 7.15039 1.96954 -1.35276 -3.53924 0.000675606
106 1 6.71586 3.72321 0.454743 -3.53937 0.00090269
107 1 6.27062 5.4835 2.26224 -3.54081 0.000897031
108 1 8.90367 2.40971 -3.16026 -3.53967 0.000181052
109 1 8.46289 4.16525 -1.35276 -3.54064 9.267e-05
110 1 8.02045 5.92083 0.454743 -3.54115 0.00049243
111 1 7.58297 7.67257 2.26224 -3.54003 0.00019117
112 1 10.2146 4.60402 -3.16026 -3.54061 7.32931e-05
113 1 9.7761 6.35711 -1.35276 -3.54037 4.14768e-05
114 1 9.34023 8.10919 0.454743 -3.53973 9.04574e-05
115 1 8.90367 9.86223 2.26224 -3.53967 0.00018108
116 1 11.5312 6.79463 -3.16026 -3.54007 1.11068e-05
117 1 11.0939 8.54788 -1.35276 -3.53998 3.38485e-05
118 1 10.6548 10.3022 0.454743 -3.54027 1.1324e-05
119 1 10.2146 12.0565 2.26224 -3.54061 7.33131e-05
120 1 12.8464 8.98682 -3.16026 -3.54022 2.0572e-06
121 1 12.4073 10.7408 -1.35276 -3.54037 1.06204e-05
122 1 11.9687 12.4942 0.454743 -3.54031 9.69755e-06
123 1 11.5312 14.2471 2.26224 -3.54007 1.11008e-05
124 1 14.1609 11.1789 -3.16026 -3.54027 2.09503e-06
125 1 13.7229 12.9322 -1.35276 -3.54017 1.28791e-06
126 1 13.2849 14.6856 0.454743 -3.54011 5.97028e-06
127 1 15.4765 13.3705 -3.16026 -3.54017 9.72228e-07
128 1 0.289722 -14.6226 -1.35276 -3.29222 9.07541
129 1 1.89361 -14.1814 -3.16026 -3.47296 0.506626
130 1 1.35523 -12.4637 -1.35276 -3.44354 0.553907
131 1 1.00074 -10.841 0.454743 -3.4744 0.668447
132 1 0.664422 -8.96456 2.26224 -3.46154 2.97382
133 1 3.20837 -12.0499 -3.16026 -3.51869 0.036621
134 1 2.77481 -10.3294 -1.35276 -3.53301 0.0442448
135 1 2.36022 -8.57844 0.454743 -3.53092 0.0756922
136 1 1.89361 -6.72892 2.26224 -3.47296 0.506627
137 1 4.53264 -9.86938 -3.16026 -3.53557 0.00544667
138 1 4.06862 -8.10529 -1.35276 -3.54596 0.0130745
139 1 3.617 -6.34164 0.454743 -3.54475 0.0278342
140 1 3.20837 -4.59739 2.26224 -3.51869 0.0366212
141 1 5.82117 -7.66641 -3.16026 -3.54249 0.00306263
142 1 5.38898 -5.91958 -1.35276 -3.54048 0.0012114
143 1 4.96718 -4.16944 0.454743 -3.53707 0.00434142
144 1 4.53264 -2.41686 2.26224 -3.53557 0.00544675
145 1 7.15039 -5.48299 -3.16026 -3.53924 0.000675565
146 1 6.71586 -3.72931 -1.35276 -3.53937 0.000902783
147 1 6.27062 -1.96902 0.454743 -3.54081 0.000897078
148 1 5.82117 -0.213893 2.26224 -3.54249 0.00306279
149 1 8.46289 -3.28727 -3.16026 -3.54064 9.26778e-05
150 1 8.02045 -1.53169 -1.35276 -3.54115 0.000492482
151 1 7.58297 0.220045 0.454743 -3.54003 0.000191164
152 1 7.15039 1.96954 2.26224 -3.53924 0.000675606
153 1 9.7761 -1.09542 -3.16026 -3.54037 4.14806e-05
154 1 9.34023 0.656668 -1.35276 -3.53973 9.04884e-05
155 1 8.90367 2.40971 0.454743 -3.53967 0.000181052
156 1 8.46289 4.16525 2.26224 -3.54064 9.267e-05
157 1 11.0939 1.09535 -3.16026 -3.53998 3.38474e-05
158 1 10.6548 2.84963 -1.35276 -3.54027 1.1327e-05
159 1 10.2146 4.60402 0.454743 -3.54061 7.32931e-05
160 1 9.7761 6.35711 2.26224 -3.54037 4.14768e-05
161 1 12.4073 3.28826 -3.16026 -3.54037 1.06238e-05
162 1 11.9687 5.04172 -1.35276 -3.54031 9.6934e-06
163 1 11.5312 6.79463 0.454743 -3.54007 1.11068e-05
164 1 11.0939 8.54788 2.26224 -3.53998 3.38485e-05
165 1 13.7229 5.47969 -3.16026 -3.54017 1.28663e-06
166 1 13.2849 7.23305 -1.35276 -3.54011 5.96481e-06
167 1 12.8464 8.98682 0.454743 -3.54022 2.0572e-06
168 1 12.4073 10.7408 2.26224 -3.54037 1.06204e-05
169 1 15.0381 7.67163 -3.16026 -3.54021 4.64655e-07
170 1 14.5994 9.42535 -1.35276 -3.54028 1.42348e-06
171 1 14.1609 11.1789 0.454743 -3.54027 2.09503e-06
172 1 13.7229 12.9322 2.26224 -3.54017 1.28791e-06
173 1 16.3529 9.86364 -3.16026 -3.54024 4.1441e-07
174 1 15.9146 11.6171 -1.35276 -3.54021 1.5524e-07
175 1 15.4765 13.3705 0.454743 -3.54017 9.72228e-07
176 1 17.6682 12.0554 -3.16026 -3.5402 1.4709e-07
177 1 17.2298 13.809 -1.35276 -3.54021 1.09852e-07
178 1 18.9832 14.2474 -3.16026 -3.54022 1.9899e-08
179 1 0.289722 -14.6226 2.26224 -3.29222 9.07541
180 1 1.89361 -14.1814 0.454743 -3.47296 0.506626
181 1 1.35523 -12.4637 2.26224 -3.44354 0.553907
182 1 3.617 -13.7942 -1.35276 -3.54475 0.0278342
183 1 3.20837 -12.0499 0.454743 -3.51869 0.036621
184 1 2.77481 -10.3294 2.26224 -3.53301 0.0442448
185 1 5.38898 -13.3721 -3.16026 -3.54048 0.00121155
186 1 4.96718 -11.622 -1.35276 -3.53707 0.00434155
187 1 4.53264 -9.86938 0.454743 -3.53557 0.00544667
188 1 4.06862 -8.10529 2.26224 -3.54596 0.0130745
189 1 6.71586 -11.1818 -3.16026 -3.53937 0.000902755
190 1 6.27062 -9.42154 -1.35276 -3.54081 0.000897126
191 1 5.82117 -7.66641 0.454743 -3.54249 0.00306263
192 1 5.38898 -5.91958 2.26224 -3.54048 0.0012114
193 1 8.02045 -8.98421 -3.16026 -3.54115 0.0004925
194 1 7.58297 -7.23248 -1.35276 -3.54003 0.000191159
195 1 7.15039 -5.48299 0.454743 -3.53924 0.000675565
196 1 6.71586 -3.72931 2.26224 -3.53937 0.000902783
197 1 9.34023 -6.79585 -3.16026 -3.53973 9.04671e-05
198 1 8.90367 -5.04281 -1.35276 -3.53967 0.000181057
199 1 8.46289 -3.28727 0.454743 -3.54064 9.26778e-05
200 1 8.02045 -1.53169 2.26224 -3.54115 0.000492482
201 1 10.6548 -4.60289 -3.16026 -3.54027 1.132e-05
202 1 10.2146 -2.8485 -1.35276 -3.54061 7.32962e-05
203 1 9.7761 -1.09542 0.454743 -3.54037 4.14806e-05
204 1 9.34023 0.656668 2.26224 -3.53973 9.04884e-05
205 1 11.9687 -2.4108 -3.16026 -3.54031 9.69717e-06
206 1 11.5312 -0.657894 -1.35276 -3.54007 1.11075e-05
207 1 11.0939 1.09535 0.454743 -3.53998 3.38474e-05
208 1 10.6548 2.84963 2.26224 -3.54027 1.1327e-05
209 1 13.2849 -0.219473 -3.16026 -3.54011 5.96481e-06
210 1 12.8464 1.5343 -1.35276 -3.54022 2.05742e-06
211 1 12.4073 3.28826 0.454743 -3.54037 1.06238e-05
212 1 11.9687 5.04172 2.26224 -3.54031 9.6934e-06
213 1 14.5994 1.97283 -3.16026 -3.54028 1.42524e-06
214 1 14.1609 3.72639 -1.35276 -3.54027 2.09149e-06
215 1 13.7229 5.47969 0.454743 -3.54017 1.28663e-06
216 1 13.2849 7.23305 2.26224 -3.54011 5.96481e-06
217 1 15.9146 4.16458 -3.16026 -3.54021 1.56122e-07
218 1 15.4765 5.91802 -1.35276 -3.54017 9.70304e-07
219 1 15.0381 7.67163 0.454743 -3.54021 4.64655e-07
220 1 14.5994 9.42535 2.26224 -3.54028 1.42348e-06
221 1 17.2298 6.35646 -3.16026 -3.54021 1.09473e-07
222 1 16.7914 8.11008 -1.35276 -3.54024 1.78432e-07
223 1 16.3529 9.86364 0.454743 -3.54024 4.1441e-07
224 1 15.9146 11.6171 2.26224 -3.54021 1.5524e-07
225 1 18.5448 8.54842 -3.16026 -3.54023 7.5426e-08
226 1 18.1064 10.3019 -1.35276 -3.54022 2.4378e-08
227 1 17.6682 12.0554 0.454743 -3.5402 1.4709e-07
228 1 17.2298 13.809 2.26224 -3.54021 1.09852e-07
229 1 19.8599 10.7403 -3.16026 -3.54021 2.0088e-08
230 1 19.4216 12.4938 -1.35276 -3.54021 2.4423e-08
231 1 18.9832 14.2474 0.454743 -3.54022 1.9899e-08
232 1 21.175 12.9322 -3.16026 -3.54022 2.36949e-09
233 1 20.7366 14.6857 -1.35276 -3.54022 1.30929e-08
234 1 3.617 -13.7942 2.26224 -3.54475 0.0278342
235 1 5.38898 -13.3721 0.454743 -3.54048 0.00121155
236 1 4.96718 -11.622 2.26224 -3.53707 0.00434155
237 1 7.58297 -14.685 -3.16026 -3.54003 0.000191163
238 1 7.15039 -12.9355 -1.35276 -3.53924 0.000675503
239 1 6.71586 -11.1818 0.454743 -3.53937 0.000902755
240 1 6.27062 -9.42154 2.26224 -3.54081 0.000897126
241 1 8.90367 -12.4953 -3.16026 -3.53967 0.00018108
242 1 8.46289 -10.7398 -1.35276 -3.54064 9.26547e-05
243 1 8.02045 -8.98421 0.454743 -3.54115 0.0004925
244 1 7.58297 -7.23248 2.26224 -3.54003 0.000191159
245 1 10.2146 -10.301 -3.16026 -3.54061 7.33131e-05
246 1 9.7761 -8.54794 -1.35276 -3.54037 4.14829e-05
247 1 9.34023 -6.79585 0.454743 -3.53973 9.04671e-05
248 1 8.90367 -5.04281 2.26224 -3.53967 0.000181057
249 1 11.5312 -8.11041 -3.16026 -3.54007 1.10997e-05
250 1 11.0939 -6.35717 -1.35276 -3.53998 3.38527e-05
251 1 10.6548 -4.60289 0.454743 -3.54027 1.132e-05
252 1 10.2146 -2.8485 2.26224 -3.54061 7.32962e-05
253 1 12.8464 -5.91822 -3.16026 -3.54022 2.05907e-06
254 1 12.4073 -4.16426 -1.35276 -3.54037 1.06155e-05
255 1 11.9687 -2.4108 0.454743 -3.54031 9.69717e-06
256 1 11.5312 -0.657894 2.26224 -3.54007 1.11075e-05
257 1 14.1609 -3.72613 -3.16026 -3.54027 2.09231e-06
258 1 13.7229 -1.97283 -1.35276 -3.54017 1.2856e-06
259 1 13.2849 -0.219473 0.454743 -3.54011 5.96481e-06
260 1 12.8464 1.5343 2.26224 -3.54022 2.05742e-06
261 1 15.4765 -1.5345 -3.16026 -3.54017 9.70083e-07
262 1 15.0381 0.219112 -1.35276 -3.54021 4.64618e-07
263 1 14.5994 1.97283 0.454743 -3.54028 1.42524e-06
264 1 14.1609 3.72639 2.26224 -3.54027 2.09149e-06
265 1 16.7914 0.657555 -3.16026 -3.54024 1.78626e-07
266 1 16.3529 2.41112 -1.35276 -3.54024 4.14783e-07
267 1 15.9146 4.16458 0.454743 -3.54021 1.56122e-07
268 1 15.4765 5.91802 2.26224 -3.54017 9.70304e-07
269 1 18.1064 2.84941 -3.16026 -3.54022 2.4385e-08
270 1 17.6682 4.6029 -1.35276 -3.5402 1.46666e-07
271 1 17.2298 6.35646 0.454743 -3.54021 1.09473e-07
272 1 16.7914 8.11008 2.26224 -3.54024 1.78432e-07
273 1 19.4216 5.04129 -3.16026 -3.54021 2.4774e-08
274 1 18.9832 6.79486 -1.35276 -3.54022 1.9982e-08
275 1 18.5448 8.54842 0.454743 -3.54023 7.5426e-08
276 1 18.1064 10.3019 2.26224 -3.54022 2.4378e-08
277 1 20.7366 7.23321 -3.16026 -3.54022 1.3274e-08
278 1 20.2983 8.98674 -1.35276 -3.54022 5.044e-09
279 1 19.8599 10.7403 0.454743 -3.54021 2.0088e-08
280 1 19.4216 12.4938 2.26224 -3.54021 2.4423e-08
281 1 22.0517 9.42509 -3.16026 -3.54022 2.622e-09
282 1 21.6134 11.1786 -1.35276 -3.54022 5.227e-09
283 1 21.175 12.9322 0.454743 -3.54022 2.36949e-09
284 1 20.7366 14.6857 2.26224 -3.54022 1.30929e-08
285 1 23.3668 11.617 -3.16026 -3.54022 3.25e-10
286 1 22.9284 13.3705 -1.35276 -3.54022 2.11967e-09
287 1 24.6819 13.8089 -3.16026 -3.54022 3.1216e-10
288 1 7.58297 -14.685 0.454743 -3.54003 0.000191163
289 1 7.15039 -12.9355 2.26224 -3.53924 0.000675503
290 1 9.34023 -14.2484 -1.35276 -3.53973 9.04603e-05
291 1 8.90367 -12.4953 0.454743 -3.53967 0.00018108
292 1 8.46289 -10.7398 2.26224 -3.54064 9.26547e-05
293 1 11.0939 -13.8097 -3.16026 -3.53998 3.38514e-05
294 1 10.6548 -12.0554 -1.35276 -3.54027 1.13246e-05
295 1 10.2146 -10.301 0.454743 -3.54061 7.33131e-05
296 1 9.7761 -8.54794 2.26224 -3.54037 4.14829e-05
297 1 12.4073 -11.6168 -3.16026 -3.54037 1.06185e-05
298 1 11.9687 -9.86332 -1.35276 -3.54031 9.69755e-06
299 1 11.5312 -8.11041 0.454743 -3.54007 1.10997e-05
300 1 11.0939 -6.35717 2.26224 -3.53998 3.38527e-05
301 1 13.7229 -9.42535 -3.16026 -3.54017 1.29009e-06
302 1 13.2849 -7.67199 -1.35276 -3.54011 5.96937e-06
303 1 12.8464 -5.91822 0.454743 -3.54022 2.05907e-06
304 1 12.4073 -4.16426 2.26224 -3.54037 1.06155e-05
305 1 15.0381 -7.23341 -3.16026 -3.54021 4.65189e-07
306 1 14.5994 -5.47969 -1.35276 -3.54028 1.42096e-06
307 1 14.1609 -3.72613 0.454743 -3.54027 2.09231e-06
308 1 13.7229 -1.97283 2.26224 -3.54017 1.2856e-06
309 1 16.3529 -5.0414 -3.16026 -3.54024 4.15728e-07
310 1 15.9146 -3.28795 -1.35276 -3.54021 1.54984e-07
311 1 15.4765 -1.5345 0.454743 -3.54017 9.70083e-07
312 1 15.0381 0.219112 2.26224 -3.54021 4.64618e-07
313 1 17.6682 -2.84962 -3.16026 -3.5402 1.47931e-07
314 1 17.2298 -1.09606 -1.35276 -3.54021 1.09643e-07
315 1 16.7914 0.657555 0.454743 -3.54024 1.78626e-07
316 1 16.3529 2.41112 2.26224 -3.54024 4.14783e-07
317 1 18.9832 -0.657665 -3.16026 -3.54022 2.042e-08
318 1 18.5448 1.09589 -1.35276 -3.54023 7.5687e-08
319 1 18.1064 2.84941 0.454743 -3.54022 2.4385e-08
320 1 17.6682 4.6029 2.26224 -3.5402 1.46666e-07
321 1 20.2983 1.53422 -3.16026 -3.54022 5.015e-09
322 1 19.8599 3.28774 -1.35276 -3.54021 1.9734e-08
323 1 19.4216 5.04129 0.454743 -3.54021 2.4774e-08
324 1 18.9832 6.79486 2.26224 -3.54022 1.9982e-08
325 1 21.6134 3.7261 -3.16026 -3.54022 5.22e-09
326 1 21.175 5.47966 -1.35276 -3.54022 2.324e-09
327 1 20.7366 7.23321 0.454743 -3.54022 1.3274e-08
328 1 20.2983 8.98674 2.26224 -3.54022 5.044e-09
329 1 22.9284 5.91801 -3.16026 -3.54022 2.033e-09
330 1 22.4901 7.67155 -1.35276 -3.54022 1.231e-09
331 1 22.0517 9.42509 0.454743 -3.54022 2.622e-09
332 1 21.6134 11.1786 2.26224 -3.54022 5.227e-09
333 1 24.2435 8.1099 -3.16026 -3.54022 3.08e-10
334 1 23.8052 9.86344 -1.35276 -3.54022 1.016e-09
335 1 23.3668 11.617 0.454743 -3.54022 3.25e-10
336 1 22.9284 13.3705 2.26224 -3.54022 2.11967e-09
337 1 25.5586 10.3018 -3.16026 -3.54022 6.1e-11
338 1 25.1202 12.0553 -1.35276 -3.54022 2.99e-10
339 1 24.6819 13.8089 0.454743 -3.54022 3.1216e-10
340 1 26.8737 12.4937 -3.16026 -3.54022 6.3e-11
341 1 26.4353 14.2472 -1.35276 -3.54022 4.716e-11
342 1 28.1888 14.6856 -3.16026 -3.54022 2.254e-11
343 1 9.34023 -14.2484 2.26224 -3.53973 9.04603e-05
344 1 11.0939 -13.8097 0.454743 -3.53998 3.38514e-05
345 1 10.6548 -12.0554 2.26224 -3.54027 1.13246e-05
346 1 12.8464 -13.3707 -1.35276 -3.54022 2.05865e-06
347 1 12.4073 -11.6168 0.454743 -3.54037 1.06185e-05
348 1 11.9687 -9.86332 2.26224 -3.54031 9.69755e-06
349 1 14.5994 -12.9322 -3.16026 -3.54028 1.42287e-06
350 1 14.1609 -11.1787 -1.35276 -3.54027 2.09321e-06
351 1 13.7229 -9.42535 0.454743 -3.54017 1.29009e-06
352 1 13.2849 -7.67199 2.26224 -3.54011 5.96937e-06
353 1 15.9146 -10.7405 -3.16026 -3.54021 1.55218e-07
354 1 15.4765 -8.98702 -1.35276 -3.54017 9.69033e-07
355 1 15.0381 -7.23341 0.454743 -3.54021 4.65189e-07
356 1 14.5994 -5.47969 2.26224 -3.54028 1.42096e-06
357 1 17.2298 -8.54858 -3.16026 -3.54021 1.09571e-07
358 1 16.7914 -6.79497 -1.35276 -3.54024 1.76618e-07
359 1 16.3529 -5.0414 0.454743 -3.54024 4.15728e-07
360 1 15.9146 -3.28795 2.26224 -3.54021 1.54984e-07
361 1 18.5448 -6.35663 -3.16026 -3.54023 7.6101e-08
362 1 18.1064 -4.60312 -1.35276 -3.54022 2.4178e-08
363 1 17.6682 -2.84962 0.454743 -3.5402 1.47931e-07
364 1 17.2298 -1.09606 2.26224 -3.54021 1.09643e-07
365 1 19.8599 -4.16478 -3.16026 -3.54021 2.0323e-08
366 1 19.4216 -2.41124 -1.35276 -3.54021 2.4709e-08
367 1 18.9832 -0.657665 0.454743 -3.54022 2.042e-08
368 1 18.5448 1.09589 2.26224 -3.54023 7.5687e-08
369 1 21.175 -1.97286 -3.16026 -3.54022 2.348e-09
370 1 20.7366 -0.219312 -1.35276 -3.54022 1.3447e-08
371 1 20.2983 1.53422 0.454743 -3.54022 5.015e-09
372 1 19.8599 3.28774 2.26224 -3.54021 1.9734e-08
373 1 22.4901 0.219031 -3.16026 -3.54022 1.236e-09
374 1 22.0517 1.97256 -1.35276 -3.54022 2.781e-09
375 1 21.6134 3.7261 0.454743 -3.54022 5.22e-09
376 1 21.175 5.47966 2.26224 -3.54022 2.324e-09
377 1 23.8052 2.41092 -3.16026 -3.54022 9.68e-10
378 1 23.3668 4.16447 -1.35276 -3.54022 3.82e-10
379 1 22.9284 5.91801 0.454743 -3.54022 2.033e-09
380 1 22.4901 7.67155 2.26224 -3.54022 1.231e-09
381 1 25.1202 4.60282 -3.16026 -3.54022 2.58e-10
382 1 24.6819 6.35636 -1.35276 -3.54022 3.1e-10
383 1 24.2435 8.1099 0.454743 -3.54022 3.08e-10
384 1 23.8052 9.86344 2.26224 -3.54022 1.016e-09
385 1 26.4353 6.79471 -3.16026 -3.54022 5.5e-11
386 1 25.997 8.54825 -1.35276 -3.54022 2.03e-10
387 1 25.5586 10.3018 0.454743 -3.54022 6.1e-11
388 1 25.1202 12.0553 2.26224 -3.54022 2.99e-10
389 1 27.7504 8.98661 -3.16026 -3.54022 1.6e-11
390 1 27.3121 10.7402 -1.35276 -3.54022 5.7e-11
391 1 26.8737 12.4937 0.454743 -3.54022 6.3e-11
392 1 26.4353 14.2472 2.26224 -3.54022 4.716e-11
393 1 29.0655 11.1785 -3.16026 -3.54022 1.3e-11
394 1 28.6271 12.932 -1.35276 -3.54022 1.169e-11
395 1 28.1888 14.6856 0.454743 -3.54022 2.254e-11
396 1 30.3806 13.3704 -3.16026 -3.54022 1.267e-11
397 1 12.8464 -13.3707 2.26224 -3.54022 2.05865e-06
398 1 15.0381 -14.6859 -1.35276 -3.54021 4.6468e-07
399 1 14.5994 -12.9322 0.454743 -3.54028 1.42287e-06
400 1 14.1609 -11.1787 2.26224 -3.54027 2.09321e-06
401 1 16.7914 -14.2475 -3.16026 -3.54024 1.78163e-07
402 1 16.3529 -12.4939 -1.35276 -3.54024 4.14493e-07
403 1 15.9146 -10.7405 0.454743 -3.54021 1.55218e-07
404 1 15.4765 -8.98702 2.26224 -3.54017 9.69033e-07
405 1 18.1064 -12.0556 -3.16026 -3.54022 2.4324e-08
406 1 17.6682 -10.3021 -1.35276 -3.5402 1.47009e-07
407 1 17.2298 -8.54858 0.454743 -3.54021 1.09571e-07
408 1 16.7914 -6.79497 2.26224 -3.54024 1.76618e-07
409 1 19.4216 -9.86376 -3.16026 -3.54021 2.4423e-08
410 1 18.9832 -8.11019 -1.35276 -3.54022 1.9937e-08
411 1 18.5448 -6.35663 0.454743 -3.54023 7.6101e-08
412 1 18.1064 -4.60312 2.26224 -3.54022 2.4178e-08
413 1 20.7366 -7.67183 -3.16026 -3.54022 1.3147e-08
414 1 20.2983 -5.9183 -1.35276 -3.54022 5.105e-09
415 1 19.8599 -4.16478 0.454743 -3.54021 2.0323e-08
416 1 19.4216 -2.41124 2.26224 -3.54021 2.4709e-08
417 1 22.0517 -5.47996 -3.16026 -3.54022 2.668e-09
418 1 21.6134 -3.72642 -1.35276 -3.54022 5.22e-09
419 1 21.175 -1.97286 0.454743 -3.54022 2.348e-09
420 1 20.7366 -0.219312 2.26224 -3.54022 1.3447e-08
421 1 23.3668 -3.28806 -3.16026 -3.54022 3.22e-10
422 1 22.9284 -1.53451 -1.35276 -3.54022 2.098e-09
423 1 22.4901 0.219031 0.454743 -3.54022 1.236e-09
424 1 22.0517 1.97256 2.26224 -3.54022 2.781e-09
425 1 24.6819 -1.09616 -3.16026 -3.54022 3.32e-10
426 1 24.2435 0.657379 -1.35276 -3.54022 3.76e-10
427 1 23.8052 2.41092 0.454743 -3.54022 9.68e-10
428 1 23.3668 4.16447 2.26224 -3.54022 3.82e-10
429 1 25.997 1.09573 -3.16026 -3.54022 1.76e-10
430 1 25.5586 2.84928 -1.35276 -3.54022 5.6e-11
431 1 25.1202 4.60282 0.454743 -3.54022 2.58e-10
432 1 24.6819 6.35636 2.26224 -3.54022 3.1e-10
433 1 27.3121 3.28763 -3.16026 -3.54022 4.5e-11
434 1 26.8737 5.04117 -1.35276 -3.54022 9.4e-11
435 1 26.4353 6.79471 0.454743 -3.54022 5.5e-11
436 1 25.997 8.54825 2.26224 -3.54022 2.03e-10
437 1 28.6271 5.47953 -3.16026 -3.54022 1e-11
438 1 28.1888 7.23307 -1.35276 -3.54022 4e-11
439 1 27.7504 8.98661 0.454743 -3.54022 1.6e-11
440 1 27.3121 10.7402 2.26224 -3.54022 5.7e-11
441 1 29.9422 7.67142 -3.16026 -3.54022 7e-12
442 1 29.5039 9.42496 -1.35276 -3.54022 1.1e-11
443 1 29.0655 11.1785 0.454743 -3.54022 1.3e-11
444 1 28.6271 12.932 2.26224 -3.54022 1.169e-11
445 1 31.2573 9.86332 -3.16026 -3.54022 6e-12
446 1 30.8189 11.6169 -1.35276 -3.54022 4e-12
447 1 30.3806 13.3704 0.454743 -3.54022 1.267e-11
448 1 32.5724 12.0552 -3.16026 -3.54022 2e-12
449 1 32.134 13.8088 -1.35276 -3.54022 5.76e-12
450 1 33.8875 14.2471 -3.16026 -3.54022 6.36e-12
451 1 15.0381 -14.6859 2.26224 -3.54021 4.6468e-07
452 1 16.7914 -14.2475 0.454743 -3.54024 1.78163e-07
453 1 16.3529 -12.4939 2.26224 -3.54024 4.14493e-07
454 1 18.5448 -13.8091 -1.35276 -3.54023 7.63654e-08
455 1 18.1064 -12.0556 0.454743 -3.54022 2.4324e-08
456 1 17.6682 -10.3021 2.26224 -3.5402 1.47009e-07
457 1 20.2983 -13.3708 -3.16026 -3.54022 5.12867e-09
458 1 19.8599 -11.6173 -1.35276 -3.54021 2.0221e-08
459 1 19.4216 -9.86376 0.454743 -3.54021 2.4423e-08
460 1 18.9832 -8.11019 2.26224 -3.54022 1.9937e-08
461 1 21.6134 -11.1789 -3.16026 -3.54022 5.227e-09
462 1 21.175 -9.42539 -1.35276 -3.54022 2.382e-09
463 1 20.7366 -7.67183 0.454743 -3.54022 1.3147e-08
464 1 20.2983 -5.9183 2.26224 -3.54022 5.105e-09
465 1 22.9284 -8.98703 -3.16026 -3.54022 2.141e-09
466 1 22.4901 -7.23349 -1.35276 -3.54022 1.189e-09
467 1 22.0517 -5.47996 0.454743 -3.54022 2.668e-09
468 1 21.6134 -3.72642 2.26224 -3.54022 5.22e-09
469 1 24.2435 -6.79514 -3.16026 -3.54022 3.44e-10
470 1 23.8052 -5.0416 -1.35276 -3.54022 9.29e-10
471 1 23.3668 -3.28806 0.454743 -3.54022 3.22e-10
472 1 22.9284 -1.53451 2.26224 -3.54022 2.098e-09
473 1 25.5586 -4.60324 -3.16026 -3.54022 5.3e-11
474 1 25.1202 -2.8497 -1.35276 -3.54022 2.74e-10
475 1 24.6819 -1.09616 0.454743 -3.54022 3.32e-10
476 1 24.2435 0.657379 2.26224 -3.54022 3.76e-10
477 1 26.8737 -2.41135 -3.16026 -3.54022 6.6e-11
478 1 26.4353 -0.657808 -1.35276 -3.54022 5.4e-11
479 1 25.997 1.09573 0.454743 -3.54022 1.76e-10
480 1 25.5586 2.84928 2.26224 -3.54022 5.6e-11
481 1 28.1888 -0.219455 -3.16026 -3.54022 2.8e-11
482 1 27.7504 1.53409 -1.35276 -3.54022 2.6e-11
483 1 27.3121 3.28763 0.454743 -3.54022 4.5e-11
484 1 26.8737 5.04117 2.26224 -3.54022 9.4e-11
485 1 29.5039 1.97244 -3.16026 -3.54022 4e-12
486 1 29.0655 3.72598 -1.35276 -3.54022 8e-12
487 1 28.6271 5.47953 0.454743 -3.54022 1e-11
488 1 28.1888 7.23307 2.26224 -3.54022 4e-11
489 1 30.8189 4.16434 -3.16026 -3.54022 2e-12
490 1 30.3806 5.91788 -1.35276 -3.54022 3e-12
491 1 29.9422 7.67142 0.454743 -3.54022 7e-12
492 1 29.5039 9.42496 2.26224 -3.54022 1.1e-11
493 1 32.134 6.35623 -3.16026 -3.54022 9e-12
494 1 31.6957 8.10977 -1.35276 -3.54022 1.1e-11
495 1 31.2573 9.86332 0.454743 -3.54022 6e-12
496 1 30.8189 11.6169 2.26224 -3.54022 4e-12
497 1 33.4491 8.54813 -3.16026 -3.54022 4e-12
498 1 33.0108 10.3017 -1.35276 -3.54022 1e-12
499 1 32.5724 12.0552 0.454743 -3.54022 2e-12
500 1 32.134 13.8088 2.26224 -3.54022 5.76e-12
501 1 34.7642 10.74 -3.16026 -3.54022 3e-12
502 1 34.3258 12.4936 -1.35276 -3.54022 6e-12
503 1 33.8875 14.2471 0.454743 -3.54022 6.36e-12
504 1 36.0793 12.9319 -3.16026 -3.54022 6.09e-12
505 1 35.6409 14.6855 -1.35276 -3.54022 3.14e-12
506 1 18.5448 -13.8091 2.26224 -3.54023 7.63654e-08
507 1 20.2983 -13.3708 0.454743 -3.54022 5.12867e-09
508 1 19.8599 -11.6173 2.26224 -3.54021 2.0221e-08
509 1 22.4901 -14.686 -3.16026 -3.54022 1.20034e-09
510 1 22.0517 -12.9325 -1.35276 -3.54022 2.60769e-09
511 1 21.6134 -11.1789 0.454743 -3.54022 5.227e-09
512 1 21.175 -9.42539 2.26224 -3.54022 2.382e-09
513 1 23.8052 -12.4941 -3.16026 -3.54022 1.016e-09
514 1 23.3668 -10.7406 -1.35276 -3.54022 3.25e-10
515 1 22.9284 -8.98703 0.454743 -3.54022 2.141e-09
516 1 22.4901 -7.23349 2.26224 -3.54022 1.189e-09
517 1 25.1202 -10.3022 -3.16026 -3.54022 2.99e-10
518 1 24.6819 -8.54868 -1.35276 -3.54022 3.09e-10
519 1 24.2435 -6.79514 0.454743 -3.54022 3.44e-10
520 1 23.8052 -5.0416 2.26224 -3.54022 9.29e-10
521 1 26.4353 -8.11033 -3.16026 -3.54022 4.6e-11
522 1 25.997 -6.35679 -1.35276 -3.54022 1.65e-10
523 1 25.5586 -4.60324 0.454743 -3.54022 5.3e-11
524 1 25.1202 -2.8497 2.26224 -3.54022 2.74e-10
525 1 27.7504 -5.91843 -3.16026 -3.54022 1.8e-11
526 1 27.3121 -4.16489 -1.35276 -3.54022 4.5e-11
527 1 26.8737 -2.41135 0.454743 -3.54022 6.6e-11
528 1 26.4353 -0.657808 2.26224 -3.54022 5.4e-11
529 1 29.0655 -3.72654 -3.16026 -3.54022 8e-12
530 1 28.6271 -1.973 -1.35276 -3.54022 8e-12
531 1 28.1888 -0.219455 0.454743 -3.54022 2.8e-11
532 1 27.7504 1.53409 2.26224 -3.54022 2.6e-11
533 1 30.3806 -1.53464 -3.16026 -3.54022 2e-12
534 1 29.9422 0.218899 -1.35276 -3.54022 6e-12
535 1 29.5039 1.97244 0.454743 -3.54022 4e-12
536 1 29.0655 3.72598 2.26224 -3.54022 8e-12
537 1 31.6957 0.657252 -3.16026 -3.54022 1e-11
538 1 31.2573 2.41079 -1.35276 -3.54022 8e-12
539 1 30.8189 4.16434 0.454743 -3.54022 2e-12
540 1 30.3806 5.91788 2.26224 -3.54022 3e-12
541 1 33.0108 2.84915 -3.16026 -3.54022 7e-12
542 1 32.5724 4.60269 -1.35276 -3.54022 7e-12
543 1 32.134 6.35623 0.454743 -3.54022 9e-12
544 1 31.6957 8.10977 2.26224 -3.54022 1.1e-11
545 1 34.3258 5.04104 -3.16026 -3.54022 9e-12
546 1 33.8875 6.79458 -1.35276 -3.54022 9e-12
547 1 33.4491 8.54813 0.454743 -3.54022 4e-12
548 1 33.0108 10.3017 2.26224 -3.54022 1e-12
549 1 35.6409 7.23294 -3.16026 -3.54022 1e-12
550 1 35.2026 8.98648 -1.35276 -3.54022 1e-12
551 1 34.7642 10.74 0.454743 -3.54022 3e-12
552 1 34.3258 12.4936 2.26224 -3.54022 6e-12
553 1 36.956 9.42483 -3.16026 -3.54022 1e-11
554 1 36.5176 11.1784 -1.35276 -3.54022 1e-11
555 1 36.0793 12.9319 0.454743 -3.54022 6.09e-12
556 1 35.6409 14.6855 2.26224 -3.54022 3.14e-12
557 1 38.2711 11.6167 -3.16026 -3.54022 5e-12
558 1 37.8327 13.3703 -1.35276 -3.54022 5.47e-12
559 1 39.5862 13.8086 -3.16026 -3.54022 6.76e-12
560 1 22.4901 -14.686 0.454743 -3.54022 1.20034e-09
561 1 22.0517 -12.9325 2.26224 -3.54022 2.60769e-09
562 1 24.2435 -14.2477 -1.35276 -3.54022 3.1496e-10
563 1 23.8052 -12.4941 0.454743 -3.54022 1.016e-09
564 1 23.3668 -10.7406 2.26224 -3.54022 3.25e-10
565 1 25.997 -13.8093 -3.16026 -3.54022 2.0796e-10
566 1 25.5586 -12.0558 -1.35276 -3.54022 6.1e-11
567 1 25.1202 -10.3022 0.454743 -3.54022 2.99e-10
568 1 24.6819 -8.54868 2.26224 -3.54022 3.09e-10
569 1 27.3121 -11.6174 -3.16026 -3.54022 5.7e-11
570 1 26.8737 -9.86387 -1.35276 -3.54022 6.3e-11
571 1 26.4353 -8.11033 0.454743 -3.54022 4.6e-11
572 1 25.997 -6.35679 2.26224 -3.54022 1.65e-10
573 1 28.6271 -9.42552 -3.16026 -3.54022 1.4e-11
574 1 28.1888 -7.67198 -1.35276 -3.54022 2.1e-11
575 1 27.7504 -5.91843 0.454743 -3.54022 1.8e-11
576 1 27.3121 -4.16489 2.26224 -3.54022 4.5e-11
577 1 29.9422 -7.23362 -3.16026 -3.54022 1e-11
578 1 29.5039 -5.48008 -1.35276 -3.54022 6e-12
579 1 29.0655 -3.72654 0.454743 -3.54022 8e-12
580 1 28.6271 -1.973 2.26224 -3.54022 8e-12
581 1 31.2573 -5.04173 -3.16026 -3.54022 5e-12
582 1 30.8189 -3.28818 -1.35276 -3.54022 1e-12
583 1 30.3806 -1.53464 0.454743 -3.54022 2e-12
584 1 29.9422 0.218899 2.26224 -3.54022 6e-12
585 1 32.5724 -2.84983 -3.16026 -3.54022 2e-12
586 1 32.134 -1.09629 -1.35276 -3.54022 6e-12
587 1 31.6957 0.657252 0.454743 -3.54022 1e-11
588 1 31.2573 2.41079 2.26224 -3.54022 8e-12
589 1 33.8875 -0.657936 -3.16026 -3.54022 1.2e-11
590 1 33.4491 1.09561 -1.35276 -3.54022 7e-12
591 1 33.0108 2.84915 0.454743 -3.54022 7e-12
592 1 32.5724 4.60269 2.26224 -3.54022 7e-12
593 1 35.2026 1.53396 -3.16026 -3.54022 1e-12