ITEM: TIMESTEP
0
ITEM: NUMBER OF ATOMS
3656
ITEM: BOX BOUNDS xy xz yz mm pp pp
-1.2522499999999999e+02 1.2522499999999999e+02 0.0000000000000000e+00
-1.4905042650000000e+01 1.4905042650000000e+01 0.0000000000000000e+00
-3.6150000000000002e+00 3.6150000000000002e+00 0.0000000000000000e+00
ITEM: ATOMS id type x y z c_eng c_csym
1 2 0.877903 12.9998 -3.1682 -3.24388 7.91133
2 2 -0.289722 7.73232 -1.3607 -3.29222 9.07541
3 2 0.877903 9.3191 -3.1682 -3.49658 8.35747
4 2 0.877903 11.1727 -1.3607 -3.52275 3.64027
5 2 0.877903 12.9998 0.4468 -3.24388 7.91133
6 1 2.75654 11.514 -3.1682 -3.4744 0.668444
7 1 2.42023 13.3904 -1.3607 -3.46154 2.97382
8 1 4.11602 13.7765 -3.1682 -3.53092 0.0756912
9 2 0.877903 3.72022 -3.1682 -3.52275 3.64026
10 2 0.877903 5.5473 -1.3607 -3.24388 7.91133
11 2 -0.289722 7.73232 2.2543 -3.29222 9.07541
12 1 2.42023 5.93788 -3.1682 -3.46154 2.97382
13 1 2.04553 7.73232 -1.3607 -3.29222 9.0754
14 2 0.877903 9.3191 0.4468 -3.49658 8.35747
15 2 0.877903 11.1727 2.2543 -3.52275 3.64027
16 1 3.64941 8.17352 -3.1682 -3.47296 0.506626
17 1 3.11103 9.89129 -1.3607 -3.44354 0.553903
18 1 2.75654 11.514 0.4468 -3.4744 0.668444
19 1 2.42023 13.3904 2.2543 -3.46154 2.97382
20 1 4.96417 10.3051 -3.1682 -3.51869 0.036621
21 1 4.53062 12.0256 -1.3607 -3.53301 0.0442446
22 1 4.11602 13.7765 0.4468 -3.53092 0.0756912
23 1 6.28844 12.4856 -3.1682 -3.53557 0.00544671
24 1 5.82442 14.2497 -1.3607 -3.54596 0.0130742
25 2 0.877903 -1.90522 -3.1682 -3.24388 7.91133
26 2 -0.289722 0.279802 0.4468 -3.29222 9.0754
27 1 2.04553 0.279802 -3.1682 -3.29222 9.0754
28 2 0.877903 1.86658 -1.3607 -3.49658 8.35748
29 2 0.877903 3.72022 0.4468 -3.52275 3.64026
30 2 0.877903 5.5473 2.2543 -3.24388 7.91133
31 1 3.11103 2.43877 -3.1682 -3.44354 0.553905
32 1 2.75654 4.06144 -1.3607 -3.4744 0.668447
33 1 2.42023 5.93788 0.4468 -3.46154 2.97382
34 1 2.04553 7.73232 2.2543 -3.29222 9.0754
35 1 4.53062 4.57306 -3.1682 -3.53301 0.0442444
36 1 4.11602 6.324 -1.3607 -3.53092 0.0756926
37 1 3.64941 8.17352 0.4468 -3.47296 0.506626
38 1 3.11103 9.89129 2.2543 -3.44354 0.553903
39 1 5.82442 6.79715 -3.1682 -3.54596 0.0130743
40 1 5.37281 8.5608 -1.3607 -3.54475 0.0278342
41 1 4.96417 10.3051 0.4468 -3.51869 0.036621
42 1 4.53062 12.0256 2.2543 -3.53301 0.0442446
43 1 7.14479 8.98286 -3.1682 -3.54048 0.00121137
44 1 6.72298 10.733 -1.3607 -3.53707 0.0043414
45 1 6.28844 12.4856 0.4468 -3.53557 0.00544671
46 1 5.82442 14.2497 2.2543 -3.54596 0.0130742
47 1 8.47167 11.1731 -3.1682 -3.53937 0.00090274
48 1 8.02642 12.9334 -1.3607 -3.54081 0.000897072
49 1 9.77626 13.3708 -3.1682 -3.54115 0.000492472
50 2 -0.289722 -7.17272 -1.3607 -3.29222 9.0754
51 2 0.877903 -5.58594 -3.1682 -3.49658 8.35748
52 2 0.877903 -3.7323 -1.3607 -3.52275 3.64026
53 2 0.877903 -1.90522 0.4468 -3.24388 7.91133
54 2 -0.289722 0.279802 -3.1682 -3.29222 9.0754
55 1 2.75654 -3.39108 -3.1682 -3.4744 0.668446
56 1 2.42023 -1.51464 -1.3607 -3.46154 2.97382
57 1 2.04553 0.279802 0.4468 -3.29222 9.0754
58 2 0.877903 1.86658 2.2543 -3.49658 8.35748
59 1 4.11602 -1.12852 -3.1682 -3.53092 0.0756916
60 1 3.64941 0.720995 -1.3607 -3.47296 0.506624
61 1 3.11103 2.43877 0.4468 -3.44354 0.553905
62 1 2.75654 4.06144 2.2543 -3.4744 0.668447
63 1 5.37281 1.10828 -3.1682 -3.54475 0.027834
64 1 4.96417 2.85253 -1.3607 -3.51869 0.036621
65 1 4.53062 4.57306 0.4468 -3.53301 0.0442444
66 1 4.11602 6.324 2.2543 -3.53092 0.0756926
67 1 6.72298 3.28048 -3.1682 -3.53707 0.00434135
68 1 6.28844 5.03306 -1.3607 -3.53557 0.00544671
69 1 5.82442 6.79715 0.4468 -3.54596 0.0130743
70 1 5.37281 8.5608 2.2543 -3.54475 0.0278342
71 1 8.02642 5.4809 -3.1682 -3.54081 0.000897078
72 1 7.57698 7.23603 -1.3607 -3.54249 0.00306287
73 1 7.14479 8.98286 0.4468 -3.54048 0.00121137
74 1 6.72298 10.733 2.2543 -3.53707 0.0043414
75 1 9.33877 7.66996 -3.1682 -3.54003 0.000191189
76 1 8.9062 9.41946 -1.3607 -3.53924 0.00067571
77 1 8.47167 11.1731 0.4468 -3.53937 0.00090274
78 1 8.02642 12.9334 2.2543 -3.54081 0.000897072
79 1 10.6595 9.85963 -3.1682 -3.53967 0.000181048
80 1 10.2187 11.6152 -1.3607 -3.54064 9.26793e-05
81 1 9.77626 13.3708 0.4468 -3.54115 0.000492472
82 1 11.9704 12.0539 -3.1682 -3.54061 7.32962e-05
83 1 11.5319 13.807 -1.3607 -3.54037 4.14788e-05
84 1 13.287 14.2445 -3.1682 -3.54007 1.11087e-05
85 2 0.877903 -11.1848 -3.1682 -3.52275 3.64027
86 2 0.877903 -9.35774 -1.3607 -3.24388 7.91133
87 2 -0.289722 -7.17272 2.2543 -3.29222 9.0754
88 1 2.42023 -8.96716 -3.1682 -3.46154 2.97382
89 1 2.04553 -7.17272 -1.3607 -3.29222 9.0754
90 2 0.877903 -5.58594 0.4468 -3.49658 8.35748
91 2 0.877903 -3.7323 2.2543 -3.52275 3.64026
92 1 3.64941 -6.73153 -3.1682 -3.47296 0.506624
93 1 3.11103 -5.01375 -1.3607 -3.44354 0.553905
94 1 2.75654 -3.39108 0.4468 -3.4744 0.668446
95 1 2.42023 -1.51464 2.2543 -3.46154 2.97382
96 1 4.96417 -4.59999 -3.1682 -3.51869 0.0366209
97 1 4.53062 -2.87946 -1.3607 -3.53301 0.044245
98 1 4.11602 -1.12852 0.4468 -3.53092 0.0756916
99 1 3.64941 0.720995 2.2543 -3.47296 0.506624
100 1 6.28844 -2.41946 -3.1682 -3.53557 0.00544671
101 1 5.82442 -0.655375 -1.3607 -3.54596 0.0130743
102 1 5.37281 1.10828 0.4468 -3.54475 0.027834
103 1 4.96417 2.85253 2.2543 -3.51869 0.036621
104 1 7.57698 -0.216495 -3.1682 -3.54249 0.00306282
105 1 7.14479 1.53034 -1.3607 -3.54048 0.00121153
106 1 6.72298 3.28048 0.4468 -3.53707 0.00434135
107 1 6.28844 5.03306 2.2543 -3.53557 0.00544671
108 1 8.9062 1.96694 -3.1682 -3.53924 0.000675672
109 1 8.47167 3.72061 -1.3607 -3.53937 0.000902725
110 1 8.02642 5.4809 0.4468 -3.54081 0.000897078
111 1 7.57698 7.23603 2.2543 -3.54249 0.00306287
112 1 10.2187 4.16265 -3.1682 -3.54064 9.2687e-05
113 1 9.77626 5.91823 -1.3607 -3.54115 0.000492486
114 1 9.33877 7.66996 0.4468 -3.54003 0.000191189
115 1 8.9062 9.41946 2.2543 -3.53924 0.00067571
116 1 11.5319 6.3545 -3.1682 -3.54037 4.14807e-05
117 1 11.096 8.10659 -1.3607 -3.53973 9.04694e-05
118 1 10.6595 9.85963 0.4468 -3.53967 0.000181048
119 1 10.2187 11.6152 2.2543 -3.54064 9.26793e-05
120 1 12.8497 8.54527 -3.1682 -3.53998 3.38518e-05
121 1 12.4106 10.2995 -1.3607 -3.54027 1.132e-05
122 1 11.9704 12.0539 0.4468 -3.54061 7.32962e-05
123 1 11.5319 13.807 2.2543 -3.54037 4.14788e-05
124 1 14.1631 10.7382 -3.1682 -3.54037 1.06155e-05
125 1 13.7245 12.4916 -1.3607 -3.54031 9.69717e-06
126 1 13.287 14.2445 0.4468 -3.54007 1.11087e-05
127 1 15.4787 12.9296 -3.1682 -3.54017 1.28591e-06
128 1 -0.289722 -14.6252 0.4468 -3.29222 9.0754
129 1 2.04553 -14.6252 -3.1682 -3.29222 9.0754
130 1 0.877903 -13.0385 -1.3607 -3.49658 8.35747
131 2 0.877903 -11.1848 0.4468 -3.52275 3.64027
132 2 0.877903 -9.35774 2.2543 -3.24388 7.91133
133 1 3.11103 -12.4663 -3.1682 -3.44354 0.553903
134 1 2.75654 -10.8436 -1.3607 -3.4744 0.668444
135 1 2.42023 -8.96716 0.4468 -3.46154 2.97382
136 1 2.04553 -7.17272 2.2543 -3.29222 9.0754
137 1 4.53062 -10.332 -3.1682 -3.53301 0.0442446
138 1 4.11602 -8.58104 -1.3607 -3.53092 0.0756912
139 1 3.64941 -6.73153 0.4468 -3.47296 0.506624
140 1 3.11103 -5.01375 2.2543 -3.44354 0.553905
141 1 5.82442 -8.1079 -3.1682 -3.54596 0.0130741
142 1 5.37281 -6.34424 -1.3607 -3.54475 0.0278342
143 1 4.96417 -4.59999 0.4468 -3.51869 0.0366209
144 1 4.53062 -2.87946 2.2543 -3.53301 0.044245
145 1 7.14479 -5.92218 -3.1682 -3.54048 0.00121151
146 1 6.72298 -4.17204 -1.3607 -3.53707 0.00434147
147 1 6.28844 -2.41946 0.4468 -3.53557 0.00544671
148 1 5.82442 -0.655375 2.2543 -3.54596 0.0130743
149 1 8.47167 -3.73191 -3.1682 -3.53937 0.000902688
150 1 8.02642 -1.97162 -1.3607 -3.54081 0.000896989
151 1 7.57698 -0.216495 0.4468 -3.54249 0.00306282
152 1 7.14479 1.53034 2.2543 -3.54048 0.00121153
153 1 9.77626 -1.53429 -3.1682 -3.54115 0.000492504
154 1 9.33877 0.217444 -1.3607 -3.54003 0.000191182
155 1 8.9062 1.96694 0.4468 -3.53924 0.000675672
156 1 8.47167 3.72061 2.2543 -3.53937 0.000902725
157 1 11.096 0.654067 -3.1682 -3.53973 9.04694e-05
158 1 10.6595 2.40711 -1.3607 -3.53967 0.000181048
159 1 10.2187 4.16265 0.4468 -3.54064 9.2687e-05
160 1 9.77626 5.91823 2.2543 -3.54115 0.000492486
161 1 12.4106 2.84703 -3.1682 -3.54027 1.132e-05
162 1 11.9704 4.60142 -1.3607 -3.54061 7.33015e-05
163 1 11.5319 6.3545 0.4468 -3.54037 4.14807e-05
164 1 11.096 8.10659 2.2543 -3.53973 9.04694e-05
165 1 13.7245 5.03912 -3.1682 -3.54031 9.69708e-06
166 1 13.287 6.79203 -1.3607 -3.54007 1.11025e-05
167 1 12.8497 8.54527 0.4468 -3.53998 3.38518e-05
168 1 12.4106 10.2995 2.2543 -3.54027 1.132e-05
169 1 15.0407 7.23045 -3.1682 -3.54011 5.96325e-06
170 1 14.6022 8.98422 -1.3607 -3.54022 2.05979e-06
171 1 14.1631 10.7382 0.4468 -3.54037 1.06155e-05
172 1 13.7245 12.4916 2.2543 -3.54031 9.69717e-06
173 1 16.3552 9.42275 -3.1682 -3.54028 1.41942e-06
174 1 15.9167 11.1763 -1.3607 -3.54027 2.09231e-06
175 1 15.4787 12.9296 0.4468 -3.54017 1.28591e-06
176 1 17.6704 11.6145 -3.1682 -3.54021 1.55558e-07
177 1 17.2323 13.3679 -1.3607 -3.54017 9.6814e-07
178 1 18.9856 13.8064 -3.1682 -3.54021 1.09237e-07
179 1 -0.289722 -14.6252 -3.1682 -3.29222 9.0754
180 1 2.04553 -14.6252 0.4468 -3.29222 9.0754
181 1 0.877903 -13.0385 2.2543 -3.49658 8.35747
182 1 3.64941 -14.184 -1.3607 -3.47296 0.506626
183 1 3.11103 -12.4663 0.4468 -3.44354 0.553903
184 1 2.75654 -10.8436 2.2543 -3.4744 0.668444
185 1 5.37281 -13.7968 -3.1682 -3.54475 0.0278342
186 1 4.96417 -12.0525 -1.3607 -3.51869 0.036621
187 1 4.53062 -10.332 0.4468 -3.53301 0.0442446
188 1 4.11602 -8.58104 2.2543 -3.53092 0.0756912
189 1 6.72298 -11.6246 -3.1682 -3.53707 0.00434145
190 1 6.28844 -9.87198 -1.3607 -3.53557 0.00544667
191 1 5.82442 -8.1079 0.4468 -3.54596 0.0130741
192 1 5.37281 -6.34424 2.2543 -3.54475 0.0278342
193 1 8.02642 -9.42415 -3.1682 -3.54081 0.000897035
194 1 7.57698 -7.66902 -1.3607 -3.54249 0.00306283
195 1 7.14479 -5.92218 0.4468 -3.54048 0.00121151
196 1 6.72298 -4.17204 2.2543 -3.53707 0.00434147
197 1 9.33877 -7.23508 -3.1682 -3.54003 0.00019119
198 1 8.9062 -5.48559 -1.3607 -3.53924 0.000675631
199 1 8.47167 -3.73191 0.4468 -3.53937 0.000902688
200 1 8.02642 -1.97162 2.2543 -3.54081 0.000896989
201 1 10.6595 -5.04541 -3.1682 -3.53967 0.000181071
202 1 10.2187 -3.28987 -1.3607 -3.54064 9.26509e-05
203 1 9.77626 -1.53429 0.4468 -3.54115 0.000492504
204 1 9.33877 0.217444 2.2543 -3.54003 0.000191182
205 1 11.9704 -2.8511 -3.1682 -3.54061 7.33174e-05
206 1 11.5319 -1.09802 -1.3607 -3.54037 4.14827e-05
207 1 11.096 0.654067 0.4468 -3.53973 9.04694e-05
208 1 10.6595 2.40711 2.2543 -3.53967 0.000181048
209 1 13.287 -0.660495 -3.1682 -3.54007 1.10983e-05
210 1 12.8497 1.09275 -1.3607 -3.53998 3.38527e-05
211 1 12.4106 2.84703 0.4468 -3.54027 1.132e-05
212 1 11.9704 4.60142 2.2543 -3.54061 7.33015e-05
213 1 14.6022 1.5317 -3.1682 -3.54022 2.05907e-06
214 1 14.1631 3.28566 -1.3607 -3.54037 1.06155e-05
215 1 13.7245 5.03912 0.4468 -3.54031 9.69708e-06
216 1 13.287 6.79203 2.2543 -3.54007 1.11025e-05
217 1 15.9167 3.72379 -3.1682 -3.54027 2.09218e-06
218 1 15.4787 5.47709 -1.3607 -3.54017 1.2856e-06
219 1 15.0407 7.23045 0.4468 -3.54011 5.96325e-06
220 1 14.6022 8.98422 2.2543 -3.54022 2.05979e-06
221 1 17.2323 5.91542 -3.1682 -3.54017 9.67891e-07
222 1 16.7939 7.66903 -1.3607 -3.54021 4.65132e-07
223 1 16.3552 9.42275 0.4468 -3.54028 1.41942e-06
224 1 15.9167 11.1763 2.2543 -3.54027 2.09231e-06
225 1 18.5472 8.10747 -3.1682 -3.54024 1.74727e-07
226 1 18.1087 9.86104 -1.3607 -3.54024 4.16045e-07
227 1 17.6704 11.6145 0.4468 -3.54021 1.55558e-07
228 1 17.2323 13.3679 2.2543 -3.54017 9.6814e-07
229 1 19.8622 10.2993 -3.1682 -3.54022 2.3999e-08
230 1 19.424 12.0528 -1.3607 -3.5402 1.46652e-07
231 1 18.9856 13.8064 0.4468 -3.54021 1.09237e-07
232 1 21.1774 12.4912 -3.1682 -3.54021 2.4214e-08
233 1 20.739 14.2448 -1.3607 -3.54022 2.04128e-08
234 1 3.64941 -14.184 2.2543 -3.47296 0.506626
235 1 5.37281 -13.7968 0.4468 -3.54475 0.0278342
236 1 4.96417 -12.0525 2.2543 -3.51869 0.036621
237 1 7.57698 14.6885 -3.1682 -3.54249 0.00306285
238 1 7.14479 -13.3747 -1.3607 -3.54048 0.00121137
239 1 6.72298 -11.6246 0.4468 -3.53707 0.00434145
240 1 6.28844 -9.87198 2.2543 -3.53557 0.00544667
241 1 8.9062 -12.9381 -3.1682 -3.53924 0.00067572
242 1 8.47167 -11.1844 -1.3607 -3.53937 0.000902647
243 1 8.02642 -9.42415 0.4468 -3.54081 0.000897035
244 1 7.57698 -7.66902 2.2543 -3.54249 0.00306283
245 1 10.2187 -10.7424 -3.1682 -3.54064 9.26662e-05
246 1 9.77626 -8.98681 -1.3607 -3.54115 0.00049243
247 1 9.33877 -7.23508 0.4468 -3.54003 0.00019119
248 1 8.9062 -5.48559 2.2543 -3.53924 0.000675631
249 1 11.5319 -8.55054 -3.1682 -3.54037 4.14768e-05
250 1 11.096 -6.79845 -1.3607 -3.53973 9.04597e-05
251 1 10.6595 -5.04541 0.4468 -3.53967 0.000181071
252 1 10.2187 -3.28987 2.2543 -3.54064 9.26509e-05
253 1 12.8497 -6.35977 -3.1682 -3.53998 3.38485e-05
254 1 12.4106 -4.60549 -1.3607 -3.54027 1.13258e-05
255 1 11.9704 -2.8511 0.4468 -3.54061 7.33174e-05
256 1 11.5319 -1.09802 2.2543 -3.54037 4.14827e-05
257 1 14.1631 -4.16686 -3.1682 -3.54037 1.06244e-05
258 1 13.7245 -2.4134 -1.3607 -3.54031 9.69224e-06
259 1 13.287 -0.660495 0.4468 -3.54007 1.10983e-05
260 1 12.8497 1.09275 2.2543 -3.53998 3.38527e-05
261 1 15.4787 -1.97543 -3.1682 -3.54017 1.28694e-06
262 1 15.0407 -0.222075 -1.3607 -3.54011 5.96781e-06
263 1 14.6022 1.5317 0.4468 -3.54022 2.05907e-06
264 1 14.1631 3.28566 2.2543 -3.54037 1.06155e-05
265 1 16.7939 0.216511 -3.1682 -3.54021 4.65004e-07
266 1 16.3552 1.97023 -1.3607 -3.54028 1.42148e-06
267 1 15.9167 3.72379 0.4468 -3.54027 2.09218e-06
268 1 15.4787 5.47709 2.2543 -3.54017 1.2856e-06
269 1 18.1087 2.40852 -3.1682 -3.54024 4.14786e-07
270 1 17.6704 4.16197 -1.3607 -3.54021 1.55002e-07
271 1 17.2323 5.91542 0.4468 -3.54017 9.67891e-07
272 1 16.7939 7.66903 2.2543 -3.54021 4.65132e-07
273 1 19.424 4.6003 -3.1682 -3.5402 1.47725e-07
274 1 18.9856 6.35386 -1.3607 -3.54021 1.08891e-07
275 1 18.5472 8.10747 0.4468 -3.54024 1.74727e-07
276 1 18.1087 9.86104 2.2543 -3.54024 4.16045e-07
277 1 20.739 6.79226 -3.1682 -3.54022 2.0764e-08
278 1 20.3006 8.54581 -1.3607 -3.54023 7.6441e-08
279 1 19.8622 10.2993 0.4468 -3.54022 2.3999e-08
280 1 19.424 12.0528 2.2543 -3.5402 1.46652e-07
281 1 22.0541 8.98414 -3.1682 -3.54022 5.343e-09
282 1 21.6157 10.7377 -1.3607 -3.54021 2.107e-08
283 1 21.1774 12.4912 0.4468 -3.54021 2.4214e-08
284 1 20.739 14.2448 2.2543 -3.54022 2.04128e-08
285 1 23.3692 11.176 -3.1682 -3.54022 5.18e-09
286 1 22.9308 12.9296 -1.3607 -3.54022 2.32409e-09
287 1 24.6842 13.3679 -3.1682 -3.54022 2.03807e-09
288 1 7.57698 14.6885 0.4468 -3.54249 0.00306285
289 1 7.14479 -13.3747 2.2543 -3.54048 0.00121137
290 1 9.33877 -14.6876 -1.3607 -3.54003 0.000191185
291 1 8.9062 -12.9381 0.4468 -3.53924 0.00067572
292 1 8.47167 -11.1844 2.2543 -3.53937 0.000902647
293 1 11.096 -14.251 -3.1682 -3.53973 9.04786e-05
294 1 10.6595 -12.4979 -1.3607 -3.53967 0.000181045
295 1 10.2187 -10.7424 0.4468 -3.54064 9.26662e-05
296 1 9.77626 -8.98681 2.2543 -3.54115 0.00049243
297 1 12.4106 -12.058 -3.1682 -3.54027 1.13205e-05
298 1 11.9704 -10.3036 -1.3607 -3.54061 7.32962e-05
299 1 11.5319 -8.55054 0.4468 -3.54037 4.14768e-05
300 1 11.096 -6.79845 2.2543 -3.53973 9.04597e-05
301 1 13.7245 -9.86592 -3.1682 -3.54031 9.69717e-06
302 1 13.287 -8.11302 -1.3607 -3.54007 1.11068e-05
303 1 12.8497 -6.35977 0.4468 -3.53998 3.38485e-05
304 1 12.4106 -4.60549 2.2543 -3.54027 1.13258e-05
305 1 15.0407 -7.6746 -3.1682 -3.54011 5.96481e-06
306 1 14.6022 -5.92082 -1.3607 -3.54022 2.05742e-06
307 1 14.1631 -4.16686 0.4468 -3.54037 1.06244e-05
308 1 13.7245 -2.4134 2.2543 -3.54031 9.69224e-06
309 1 16.3552 -5.48229 -3.1682 -3.54028 1.4237e-06
310 1 15.9167 -3.72873 -1.3607 -3.54027 2.09172e-06
311 1 15.4787 -1.97543 0.4468 -3.54017 1.28694e-06
312 1 15.0407 -0.222075 2.2543 -3.54011 5.96781e-06
313 1 17.6704 -3.29055 -3.1682 -3.54021 1.5467e-07
314 1 17.2323 -1.5371 -1.3607 -3.54017 9.70235e-07
315 1 16.7939 0.216511 0.4468 -3.54021 4.65004e-07
316 1 16.3552 1.97023 2.2543 -3.54028 1.42148e-06
317 1 18.9856 -1.09866 -3.1682 -3.54021 1.09224e-07
318 1 18.5472 0.654953 -1.3607 -3.54024 1.75203e-07
319 1 18.1087 2.40852 0.4468 -3.54024 4.14786e-07
320 1 17.6704 4.16197 2.2543 -3.54021 1.55002e-07
321 1 20.3006 1.09329 -3.1682 -3.54023 7.659e-08
322 1 19.8622 2.84681 -1.3607 -3.54022 2.3851e-08
323 1 19.424 4.6003 0.4468 -3.5402 1.47725e-07
324 1 18.9856 6.35386 2.2543 -3.54021 1.08891e-07
325 1 21.6157 3.28514 -3.1682 -3.54021 2.1103e-08
326 1 21.1774 5.03868 -1.3607 -3.54021 2.4163e-08
327 1 20.739 6.79226 0.4468 -3.54022 2.0764e-08
328 1 20.3006 8.54581 2.2543 -3.54023 7.6441e-08
329 1 22.9308 5.47706 -3.1682 -3.54022 2.327e-09
330 1 22.4924 7.23061 -1.3607 -3.54022 1.2403e-08
331 1 22.0541 8.98414 0.4468 -3.54022 5.343e-09
332 1 21.6157 10.7377 2.2543 -3.54021 2.107e-08
333 1 24.2459 7.66895 -3.1682 -3.54022 1.208e-09
334 1 23.8075 9.42248 -1.3607 -3.54022 2.707e-09
335 1 23.3692 11.176 0.4468 -3.54022 5.18e-09
336 1 22.9308 12.9296 2.2543 -3.54022 2.32409e-09
337 1 25.561 9.86084 -3.1682 -3.54022 9.68e-10
338 1 25.1226 11.6144 -1.3607 -3.54022 3.82e-10
339 1 24.6842 13.3679 0.4468 -3.54022 2.03807e-09
340 1 26.8761 12.0527 -3.1682 -3.54022 2.64e-10
341 1 26.4377 13.8063 -1.3607 -3.54022 3.1616e-10
342 1 28.1911 14.2446 -3.1682 -3.54022 4.996e-11
343 1 9.33877 -14.6876 2.2543 -3.54003 0.000191185
344 1 11.096 -14.251 0.4468 -3.53973 9.04786e-05
345 1 10.6595 -12.4979 2.2543 -3.53967 0.000181045
346 1 12.8497 -13.8123 -1.3607 -3.53998 3.38368e-05
347 1 12.4106 -12.058 0.4468 -3.54027 1.13205e-05
348 1 11.9704 -10.3036 2.2543 -3.54061 7.32962e-05
349 1 14.6022 -13.3733 -3.1682 -3.54022 2.05795e-06
350 1 14.1631 -11.6194 -1.3607 -3.54037 1.06126e-05
351 1 13.7245 -9.86592 0.4468 -3.54031 9.69717e-06
352 1 13.287 -8.11302 2.2543 -3.54007 1.11068e-05
353 1 15.9167 -11.1813 -3.1682 -3.54027 2.09231e-06
354 1 15.4787 -9.42795 -1.3607 -3.54017 1.2856e-06
355 1 15.0407 -7.6746 0.4468 -3.54011 5.96481e-06
356 1 14.6022 -5.92082 2.2543 -3.54022 2.05742e-06
357 1 17.2323 -8.98962 -3.1682 -3.54017 9.68533e-07
358 1 16.7939 -7.23601 -1.3607 -3.54021 4.65e-07
359 1 16.3552 -5.48229 0.4468 -3.54028 1.4237e-06
360 1 15.9167 -3.72873 2.2543 -3.54027 2.09172e-06
361 1 18.5472 -6.79757 -3.1682 -3.54024 1.76622e-07
362 1 18.1087 -5.044 -1.3607 -3.54024 4.15103e-07
363 1 17.6704 -3.29055 0.4468 -3.54021 1.5467e-07
364 1 17.2323 -1.5371 2.2543 -3.54017 9.70235e-07
365 1 19.8622 -4.60572 -3.1682 -3.54022 2.4231e-08
366 1 19.424 -2.85222 -1.3607 -3.5402 1.47013e-07
367 1 18.9856 -1.09866 0.4468 -3.54021 1.09224e-07
368 1 18.5472 0.654953 2.2543 -3.54024 1.75203e-07
369 1 21.1774 -2.41384 -3.1682 -3.54021 2.4308e-08
370 1 20.739 -0.660267 -1.3607 -3.54022 2.0147e-08
371 1 20.3006 1.09329 0.4468 -3.54023 7.659e-08
372 1 19.8622 2.84681 2.2543 -3.54022 2.3851e-08
373 1 22.4924 -0.221914 -3.1682 -3.54022 1.2642e-08
374 1 22.0541 1.53162 -1.3607 -3.54022 5.353e-09
375 1 21.6157 3.28514 0.4468 -3.54021 2.1103e-08
376 1 21.1774 5.03868 2.2543 -3.54021 2.4163e-08
377 1 23.8075 1.96996 -3.1682 -3.54022 2.586e-09
378 1 23.3692 3.7235 -1.3607 -3.54022 5.189e-09
379 1 22.9308 5.47706 0.4468 -3.54022 2.327e-09
380 1 22.4924 7.23061 2.2543 -3.54022 1.2403e-08
381 1 25.1226 4.16186 -3.1682 -3.54022 3.16e-10
382 1 24.6842 5.91541 -1.3607 -3.54022 2.074e-09
383 1 24.2459 7.66895 0.4468 -3.54022 1.208e-09
384 1 23.8075 9.42248 2.2543 -3.54022 2.707e-09
385 1 26.4377 6.35376 -3.1682 -3.54022 3.32e-10
386 1 25.9993 8.1073 -1.3607 -3.54022 3.76e-10
387 1 25.561 9.86084 0.4468 -3.54022 9.68e-10
388 1 25.1226 11.6144 2.2543 -3.54022 3.82e-10
389 1 27.7528 8.54565 -3.1682 -3.54022 1.74e-10
390 1 27.3144 10.2992 -1.3607 -3.54022 5.4e-11
391 1 26.8761 12.0527 0.4468 -3.54022 2.64e-10
392 1 26.4377 13.8063 2.2543 -3.54022 3.1616e-10
393 1 29.0679 10.7376 -3.1682 -3.54022 4.5e-11
394 1 28.6295 12.4911 -1.3607 -3.54022 6.6e-11
395 1 28.1911 14.2446 0.4468 -3.54022 4.996e-11
396 1 30.3829 12.9294 -3.1682 -3.54022 6.09e-12
397 1 12.8497 -13.8123 2.2543 -3.53998 3.38368e-05
398 1 15.0407 14.683 -1.3607 -3.54011 5.96402e-06
399 1 14.6022 -13.3733 0.4468 -3.54022 2.05795e-06
400 1 14.1631 -11.6194 2.2543 -3.54037 1.06126e-05
401 1 16.7939 -14.6885 -3.1682 -3.54021 4.65122e-07
402 1 16.3552 -12.9348 -1.3607 -3.54028 1.41976e-06
403 1 15.9167 -11.1813 0.4468 -3.54027 2.09231e-06
404 1 15.4787 -9.42795 2.2543 -3.54017 1.2856e-06
405 1 18.1087 -12.4965 -3.1682 -3.54024 4.16045e-07
406 1 17.6704 -10.7431 -1.3607 -3.54021 1.55558e-07
407 1 17.2323 -8.98962 0.4468 -3.54017 9.68533e-07
408 1 16.7939 -7.23601 2.2543 -3.54021 4.65e-07
409 1 19.424 -10.3047 -3.1682 -3.5402 1.46652e-07
410 1 18.9856 -8.55118 -1.3607 -3.54021 1.09363e-07
411 1 18.5472 -6.79757 0.4468 -3.54024 1.76622e-07
412 1 18.1087 -5.044 2.2543 -3.54024 4.15103e-07
413 1 20.739 -8.11279 -3.1682 -3.54022 2.0496e-08
414 1 20.3006 -6.35923 -1.3607 -3.54023 7.6217e-08
415 1 19.8622 -4.60572 0.4468 -3.54022 2.4231e-08
416 1 19.424 -2.85222 2.2543 -3.5402 1.47013e-07
417 1 22.0541 -5.9209 -3.1682 -3.54022 5.336e-09
418 1 21.6157 -4.16738 -1.3607 -3.54021 2.0577e-08
419 1 21.1774 -2.41384 0.4468 -3.54021 2.4308e-08
420 1 20.739 -0.660267 2.2543 -3.54022 2.0147e-08
421 1 23.3692 -3.72902 -3.1682 -3.54022 5.101e-09
422 1 22.9308 -1.97547 -1.3607 -3.54022 2.229e-09
423 1 22.4924 -0.221914 0.4468 -3.54022 1.2642e-08
424 1 22.0541 1.53162 2.2543 -3.54022 5.353e-09
425 1 24.6842 -1.53711 -3.1682 -3.54022 2.152e-09
426 1 24.2459 0.216429 -1.3607 -3.54022 1.199e-09
427 1 23.8075 1.96996 0.4468 -3.54022 2.586e-09
428 1 23.3692 3.7235 2.2543 -3.54022 5.189e-09
429 1 25.9993 0.654778 -3.1682 -3.54022 3.43e-10
430 1 25.561 2.40832 -1.3607 -3.54022 1.013e-09
431 1 25.1226 4.16186 0.4468 -3.54022 3.16e-10
432 1 24.6842 5.91541 2.2543 -3.54022 2.074e-09
433 1 27.3144 2.84668 -3.1682 -3.54022 6.3e-11
434 1 26.8761 4.60022 -1.3607 -3.54022 2.89e-10
435 1 26.4377 6.35376 0.4468 -3.54022 3.32e-10
436 1 25.9993 8.1073 2.2543 -3.54022 3.76e-10
437 1 28.6295 5.03857 -3.1682 -3.54022 6.4e-11
438 1 28.1911 6.79211 -1.3607 -3.54022 5.2e-11
439 1 27.7528 8.54565 0.4468 -3.54022 1.74e-10
440 1 27.3144 10.2992 2.2543 -3.54022 5.4e-11
441 1 29.9446 7.23047 -3.1682 -3.54022 2.3e-11
442 1 29.5062 8.98401 -1.3607 -3.54022 1.8e-11
443 1 29.0679 10.7376 0.4468 -3.54022 4.5e-11
444 1 28.6295 12.4911 2.2543 -3.54022 6.6e-11
445 1 31.2597 9.42236 -3.1682 -3.54022 6e-12
446 1 30.8213 11.1759 -1.3607 -3.54022 1.3e-11
447 1 30.3829 12.9294 0.4468 -3.54022 6.09e-12
448 1 32.5747 11.6143 -3.1682 -3.54022 3e-12
449 1 32.1364 13.3678 -1.3607 -3.54022 2.227e-11
450 1 33.8898 13.8062 -3.1682 -3.54022 6.96e-12
451 1 15.0407 14.683 2.2543 -3.54011 5.96402e-06
452 1 16.7939 -14.6885 0.4468 -3.54021 4.65122e-07
453 1 16.3552 -12.9348 2.2543 -3.54028 1.41976e-06
454 1 18.5472 -14.2501 -1.3607 -3.54024 1.74869e-07
455 1 18.1087 -12.4965 0.4468 -3.54024 4.16045e-07
456 1 17.6704 -10.7431 2.2543 -3.54021 1.55558e-07
457 1 20.3006 -13.8117 -3.1682 -3.54023 7.65918e-08
458 1 19.8622 -12.0582 -1.3607 -3.54022 2.3999e-08
459 1 19.424 -10.3047 0.4468 -3.5402 1.46652e-07
460 1 18.9856 -8.55118 2.2543 -3.54021 1.09363e-07
461 1 21.6157 -11.6199 -3.1682 -3.54021 2.107e-08
462 1 21.1774 -9.86636 -1.3607 -3.54021 2.4214e-08
463 1 20.739 -8.11279 0.4468 -3.54022 2.0496e-08
464 1 20.3006 -6.35923 2.2543 -3.54023 7.6217e-08
465 1 22.9308 -9.42799 -3.1682 -3.54022 2.336e-09
466 1 22.4924 -7.67443 -1.3607 -3.54022 1.268e-08
467 1 22.0541 -5.9209 0.4468 -3.54022 5.336e-09
468 1 21.6157 -4.16738 2.2543 -3.54021 2.0577e-08
469 1 24.2459 -7.23609 -3.1682 -3.54022 1.222e-09
470 1 23.8075 -5.48256 -1.3607 -3.54022 2.544e-09
471 1 23.3692 -3.72902 0.4468 -3.54022 5.101e-09
472 1 22.9308 -1.97547 2.2543 -3.54022 2.229e-09
473 1 25.561 -5.0442 -3.1682 -3.54022 1.01e-09
474 1 25.1226 -3.29066 -1.3607 -3.54022 3.17e-10
475 1 24.6842 -1.53711 0.4468 -3.54022 2.152e-09
476 1 24.2459 0.216429 2.2543 -3.54022 1.199e-09
477 1 26.8761 -2.8523 -3.1682 -3.54022 3.3e-10
478 1 26.4377 -1.09876 -1.3607 -3.54022 2.99e-10
479 1 25.9993 0.654778 0.4468 -3.54022 3.43e-10
480 1 25.561 2.40832 2.2543 -3.54022 1.013e-09
481 1 28.1911 -0.66041 -3.1682 -3.54022 7.8e-11
482 1 27.7528 1.09313 -1.3607 -3.54022 1.62e-10
483 1 27.3144 2.84668 0.4468 -3.54022 6.3e-11
484 1 26.8761 4.60022 2.2543 -3.54022 2.89e-10
485 1 29.5062 1.53149 -3.1682 -3.54022 1.6e-11
486 1 29.0679 3.28503 -1.3607 -3.54022 5e-11
487 1 28.6295 5.03857 0.4468 -3.54022 6.4e-11
488 1 28.1911 6.79211 2.2543 -3.54022 5.2e-11
489 1 30.8213 3.72338 -3.1682 -3.54022 1.5e-11
490 1 30.3829 5.47692 -1.3607 -3.54022 1.8e-11
491 1 29.9446 7.23047 0.4468 -3.54022 2.3e-11
492 1 29.5062 8.98401 2.2543 -3.54022 1.8e-11
493 1 32.1364 5.91528 -3.1682 -3.54022 2.4e-11
494 1 31.698 7.66882 -1.3607 -3.54022 1e-11
495 1 31.2597 9.42236 0.4468 -3.54022 6e-12
496 1 30.8213 11.1759 2.2543 -3.54022 1.3e-11
497 1 33.4515 8.10717 -3.1682 -3.54022 4e-12
498 1 33.0131 9.86071 -1.3607 -3.54022 5e-12
499 1 32.5747 11.6143 0.4468 -3.54022 3e-12
500 1 32.1364 13.3678 2.2543 -3.54022 2.227e-11
501 1 34.7666 10.2991 -3.1682 -3.54022 5e-12
502 1 34.3282 12.0526 -1.3607 -3.54022 5e-12
503 1 33.8898 13.8062 0.4468 -3.54022 6.96e-12
504 1 36.0816 12.491 -3.1682 -3.54022 7e-12
505 1 35.6433 14.2445 -1.3607 -3.54022 9.96e-12
506 1 18.5472 -14.2501 2.2543 -3.54024 1.74869e-07
507 1 20.3006 -13.8117 0.4468 -3.54023 7.65918e-08
508 1 19.8622 -12.0582 2.2543 -3.54022 2.3999e-08
509 1 22.4924 14.6831 -3.1682 -3.54022 1.27161e-08
510 1 22.0541 -13.3734 -1.3607 -3.54022 5.31387e-09
511 1 21.6157 -11.6199 0.4468 -3.54021 2.107e-08
512 1 21.1774 -9.86636 2.2543 -3.54021 2.4214e-08
513 1 23.8075 -12.9351 -3.1682 -3.54022 2.74249e-09
514 1 23.3692 -11.1815 -1.3607 -3.54022 5.18e-09
515 1 22.9308 -9.42799 0.4468 -3.54022 2.336e-09
516 1 22.4924 -7.67443 2.2543 -3.54022 1.268e-08
517 1 25.1226 -10.7432 -3.1682 -3.54022 3.82e-10
518 1 24.6842 -8.98963 -1.3607 -3.54022 2.018e-09
519 1 24.2459 -7.23609 0.4468 -3.54022 1.222e-09
520 1 23.8075 -5.48256 2.2543 -3.54022 2.544e-09
521 1 26.4377 -8.55128 -3.1682 -3.54022 3.09e-10
522 1 25.9993 -6.79774 -1.3607 -3.54022 2.93e-10
523 1 25.561 -5.0442 0.4468 -3.54022 1.01e-09
524 1 25.1226 -3.29066 2.2543 -3.54022 3.17e-10
525 1 27.7528 -6.35939 -3.1682 -3.54022 1.93e-10
526 1 27.3144 -4.60585 -1.3607 -3.54022 5.7e-11
527 1 26.8761 -2.8523 0.4468 -3.54022 3.3e-10
528 1 26.4377 -1.09876 2.2543 -3.54022 2.99e-10
529 1 29.0679 -4.16749 -3.1682 -3.54022 6.2e-11
530 1 28.6295 -2.41395 -1.3607 -3.54022 7.4e-11
531 1 28.1911 -0.66041 0.4468 -3.54022 7.8e-11
532 1 27.7528 1.09313 2.2543 -3.54022 1.62e-10
533 1 30.3829 -1.9756 -3.1682 -3.54022 9e-12
534 1 29.9446 -0.222056 -1.3607 -3.54022 2.4e-11
535 1 29.5062 1.53149 0.4468 -3.54022 1.6e-11
536 1 29.0679 3.28503 2.2543 -3.54022 5e-11
537 1 31.698 0.216297 -3.1682 -3.54022 1.2e-11
538 1 31.2597 1.96984 -1.3607 -3.54022 8e-12
539 1 30.8213 3.72338 0.4468 -3.54022 1.5e-11
540 1 30.3829 5.47692 2.2543 -3.54022 1.8e-11
541 1 33.0131 2.40819 -3.1682 -3.54022 6e-12
542 1 32.5747 4.16174 -1.3607 -3.54022 4e-12
543 1 32.1364 5.91528 0.4468 -3.54022 2.4e-11
544 1 31.698 7.66882 2.2543 -3.54022 1e-11
545 1 34.3282 4.60009 -3.1682 -3.54022 1e-12
546 1 33.8898 6.35363 -1.3607 -3.54022 3e-12
547 1 33.4515 8.10717 0.4468 -3.54022 4e-12
548 1 33.0131 9.86071 2.2543 -3.54022 5e-12
549 1 35.6433 6.79198 -3.1682 -3.54022 1e-11
550 1 35.2049 8.54552 -1.3607 -3.54022 9e-12
551 1 34.7666 10.2991 0.4468 -3.54022 5e-12
552 1 34.3282 12.0526 2.2543 -3.54022 5e-12
553 1 36.9584 8.98388 -3.1682 -3.54022 5e-12
554 1 36.52 10.7374 -1.3607 -3.54022 5e-12
555 1 36.0816 12.491 0.4468 -3.54022 7e-12
556 1 35.6433 14.2445 2.2543 -3.54022 9.96e-12
557 1 38.2734 11.1758 -3.1682 -3.54022 6e-12
558 1 37.8351 12.9293 -1.3607 -3.54022 6.09e-12
559 1 39.5885 13.3677 -3.1682 -3.54022 1.27e-12
560 1 22.4924 14.6831 0.4468 -3.54022 1.27161e-08
561 1 22.0541 -13.3734 2.2543 -3.54022 5.31387e-09
562 1 24.2459 -14.6886 -1.3607 -3.54022 1.23314e-09
563 1 23.8075 -12.9351 0.4468 -3.54022 2.74249e-09
564 1 23.3692 -11.1815 2.2543 -3.54022 5.18e-09
565 1 25.9993 -14.2503 -3.1682 -3.54022 3.6856e-10
566 1 25.561 -12.4967 -1.3607 -3.54022 9.68e-10
567 1 25.1226 -10.7432 0.4468 -3.54022 3.82e-10
568 1 24.6842 -8.98963 2.2543 -3.54022 2.018e-09
569 1 27.3144 -12.0584 -3.1682 -3.54022 5.4e-11
570 1 26.8761 -10.3048 -1.3607 -3.54022 2.64e-10
571 1 26.4377 -8.55128 0.4468 -3.54022 3.09e-10
572 1 25.9993 -6.79774 2.2543 -3.54022 2.93e-10
573 1 28.6295 -9.86647 -3.1682 -3.54022 6.6e-11
574 1 28.1911 -8.11293 -1.3607 -3.54022 5.3e-11
575 1 27.7528 -6.35939 0.4468 -3.54022 1.93e-10
576 1 27.3144 -4.60585 2.2543 -3.54022 5.7e-11
577 1 29.9446 -7.67458 -3.1682 -3.54022 3.1e-11
578 1 29.5062 -5.92103 -1.3607 -3.54022 2.3e-11
579 1 29.0679 -4.16749 0.4468 -3.54022 6.2e-11
580 1 28.6295 -2.41395 2.2543 -3.54022 7.4e-11
581 1 31.2597 -5.48268 -3.1682 -3.54022 1.2e-11
582 1 30.8213 -3.72914 -1.3607 -3.54022 2.6e-11
583 1 30.3829 -1.9756 0.4468 -3.54022 9e-12
584 1 29.9446 -0.222056 2.2543 -3.54022 2.4e-11
585 1 32.5747 -3.29079 -3.1682 -3.54022 1.5e-11
586 1 32.1364 -1.53724 -1.3607 -3.54022 2.8e-11
587 1 31.698 0.216297 0.4468 -3.54022 1.2e-11
588 1 31.2597 1.96984 2.2543 -3.54022 8e-12
589 1 33.8898 -1.09889 -3.1682 -3.54022 7e-12
590 1 33.4515 0.654651 -1.3607 -3.54022 7e-12
591 1 33.0131 2.40819 0.4468 -3.54022 6e-12
592 1 32.5747 4.16174 2.2543 -3.54022 4e-12
593 1 35.2049 1.093 -3.1682 -3.54022 5e-12
594 1 34.7666 2.84655 -1.3607 -3.54022 1e-12
595 1 34.3282 4.60009 0.4468 -3.54022 1e-12
596 1 33.8898 6.35363 2.2543 -3.54022 3e-12
597 1 36.52 3.2849 -3.1682 -3.54022 5e-12
598 1 36.0816 5.03844 -1.3607 -3.54022 7e-12
599 1 35.6433 6.79198 0.4468 -3.54022 1e-11
600 1 35.2049 8.54552 2.2543 -3.54022 9e-12
601 1 37.8351 5.4768 -3.1682 -3.54022 1e-11
602 1 37.3967 7.23034 -1.3607 -3.54022 7e-12
603 1 36.9584 8.98388 0.4468 -3.54022 5e-12
604 1 36.52 10.7374 2.2543 -3.54022 5e-12
605 1 39.1502 7.66869 -3.1682 -3.54022 1e-12
606 1 38.7118 9.42223 -1.3607 -3.54022 3e-12
607 1 38.2734 11.1758 0.4468 -3.54022 6e-12
608 1 37.8351 12.9293 2.2543 -3.54022 6.09e-12
609 1 40.4652 9.86058 -3.1682 -3.54022 6e-12