ITEM: TIMESTEP
0
ITEM: NUMBER OF ATOMS
3656
ITEM: BOX BOUNDS xy xz yz mm pp pp
-1.2522499999999999e+02 1.2522499999999999e+02 0.0000000000000000e+00
-1.4905042650000000e+01 1.4905042650000000e+01 0.0000000000000000e+00
-3.6150000000000002e+00 3.6150000000000002e+00 0.0000000000000000e+00
ITEM: ATOMS id type x y z c_eng c_csym
1 2 0.685452 13.2514 -3.16522 -3.41903 3.13608
2 2 -0.326211 7.68879 -1.35772 -3.28469 8.98172
3 2 0.822932 9.33748 -3.16522 -3.50116 8.41288
4 2 0.840387 11.2243 -1.35772 -3.5175 2.75792
5 2 0.685452 13.2514 0.449781 -3.41903 3.13608
6 1 2.61532 11.6683 -3.16522 -3.50368 0.489083
7 1 2.32424 13.5023 -1.35772 -3.50978 0.22031
8 1 4.01121 13.9241 -3.16522 -3.54723 0.074223
9 2 0.880123 3.72577 -3.16522 -3.52205 3.71634
10 2 0.865096 5.55481 -1.35772 -3.24216 7.93106
11 2 -0.326211 7.68879 2.25728 -3.28469 8.98172
12 1 2.38843 6.00871 -3.16522 -3.46316 3.24327
13 1 2.00533 7.80218 -1.35772 -3.29616 9.21077
14 2 0.822932 9.33748 0.449781 -3.50116 8.41288
15 2 0.840387 11.2243 2.25728 -3.5175 2.75792
16 1 3.59772 8.26793 -3.16522 -3.47022 0.522557
17 1 3.04682 9.99836 -1.35772 -3.45143 0.599183
18 1 2.61532 11.6683 0.449781 -3.50368 0.489083
19 1 2.32424 13.5023 2.25728 -3.50978 0.220309
20 1 4.86687 10.4338 -3.16522 -3.52322 0.0225654
21 1 4.43651 12.1548 -1.35772 -3.52803 0.0275866
22 1 4.01121 13.9241 0.449781 -3.54723 0.074223
23 1 6.20794 12.6078 -3.16522 -3.53766 0.00103714
24 1 5.77598 14.3546 -1.35772 -3.54408 0.0127188
25 2 0.883639 -1.89962 -3.16522 -3.24339 7.92791
26 2 -0.303476 0.242763 0.449782 -3.28641 8.94764
27 1 2.03073 0.335969 -3.16522 -3.29969 9.23188
28 2 0.825991 1.87075 -1.35772 -3.49527 8.85721
29 2 0.880123 3.72577 0.449781 -3.52205 3.71634
30 2 0.865096 5.55481 2.25728 -3.24216 7.93106
31 1 3.11854 2.49532 -3.16522 -3.43405 0.63241
32 1 2.75998 4.11684 -1.35772 -3.46187 0.764865
33 1 2.38843 6.00871 0.449781 -3.46316 3.24327
34 1 2.00533 7.80218 2.25728 -3.29616 9.21077
35 1 4.5136 4.66048 -3.16522 -3.53416 0.0450551
36 1 4.08206 6.41265 -1.35772 -3.52909 0.0771763
37 1 3.59772 8.26793 0.449781 -3.47022 0.522557
38 1 3.04682 9.99836 2.25728 -3.45143 0.599183
39 1 5.78207 6.90571 -3.16522 -3.54491 0.0143629
40 1 5.31088 8.67541 -1.35772 -3.54279 0.0274768
41 1 4.86687 10.4338 0.449781 -3.52322 0.0225654
42 1 4.43651 12.1548 2.25728 -3.52803 0.0275866
43 1 7.07486 9.11008 -3.16522 -3.54166 0.00341751
44 1 6.64194 10.8581 -1.35772 -3.53768 0.000605443
45 1 6.20794 12.6078 0.449781 -3.53766 0.00103714
46 1 5.77598 14.3546 2.25728 -3.54408 0.0127188
47 1 8.40933 11.2937 -3.16522 -3.54017 0.000226653
48 1 7.97885 13.0399 -1.35772 -3.54033 0.000697368
49 1 9.75259 13.4719 -3.16522 -3.53985 0.000261427
50 2 -0.302128 -7.22126 -1.35772 -3.27942 8.93315
51 2 0.784192 -5.57724 -3.16522 -3.49154 8.1945
52 2 0.90515 -3.72962 -1.35772 -3.52368 3.94223
53 2 0.883639 -1.89962 0.449781 -3.24339 7.92791
54 2 -0.303476 0.242763 -3.16522 -3.28641 8.94764
55 1 2.79441 -3.31623 -3.16522 -3.45655 0.83878
56 1 2.41576 -1.45029 -1.35772 -3.46655 3.06934
57 1 2.03073 0.335969 0.449781 -3.29969 9.23188
58 2 0.825991 1.87075 2.25728 -3.49527 8.85721
59 1 4.12241 -1.03623 -3.16522 -3.5334 0.0654875
60 1 3.64521 0.792769 -1.35772 -3.4763 0.545059
61 1 3.11854 2.49532 0.449781 -3.43405 0.63241
62 1 2.75998 4.11684 2.25728 -3.46187 0.764865
63 1 5.38082 1.20165 -3.16522 -3.54445 0.0199871
64 1 4.96595 2.93624 -1.35772 -3.51709 0.0391036
65 1 4.5136 4.66048 0.449781 -3.53416 0.0450551
66 1 4.08206 6.41265 2.25728 -3.52909 0.0771763
67 1 6.71599 3.38892 -3.16522 -3.53723 0.00489711
68 1 6.26377 5.13959 -1.35772 -3.53567 0.00529478
69 1 5.78207 6.90571 0.449781 -3.54491 0.0143629
70 1 5.31088 8.67541 2.25728 -3.54279 0.0274768
71 1 7.99627 5.60398 -3.16522 -3.54059 0.00150144
72 1 7.52825 7.35975 -1.35772 -3.54225 0.00505102
73 1 7.07486 9.11008 0.449781 -3.54166 0.00341751
74 1 6.64194 10.8581 2.25728 -3.53768 0.000605443
75 1 9.28915 7.80247 -3.16522 -3.54049 0.00156066
76 1 8.84537 9.54786 -1.35772 -3.53981 0.000488764
77 1 8.40933 11.2937 0.449781 -3.54017 0.000226653
78 1 7.97885 13.0399 2.25728 -3.54033 0.000697368
79 1 10.6136 9.9857 -3.16522 -3.53995 0.000208102
80 1 10.1793 11.7293 -1.35772 -3.5403 0.000212365
81 1 9.75259 13.4719 0.449781 -3.53985 0.000261427
82 1 11.949 12.1652 -3.16522 -3.53991 9.74427e-05
83 1 11.5218 13.9085 -1.35772 -3.53946 0.000398541
84 1 13.2844 14.3486 -3.16522 -3.53969 0.000269921
85 2 0.9933 -11.0084 -3.16522 -3.47601 1.33316
86 2 0.891716 -9.32022 -1.35772 -3.26692 6.97436
87 2 -0.302128 -7.22126 2.25728 -3.27942 8.93315
88 1 2.4396 -8.79784 -3.16522 -3.49183 3.55399
89 1 2.03548 -7.04592 -1.35772 -3.31406 9.35702
90 2 0.784192 -5.57724 0.449781 -3.49154 8.1945
91 2 0.90515 -3.72962 2.25728 -3.52368 3.94223
92 1 3.68137 -6.59402 -3.16522 -3.47607 0.670921
93 1 3.17053 -4.9156 -1.35772 -3.4156 0.80138
94 1 2.79441 -3.31623 0.449781 -3.45655 0.83878
95 1 2.41576 -1.45029 2.25728 -3.46655 3.06934
96 1 5.01856 -4.47515 -3.16522 -3.51478 0.051289
97 1 4.56193 -2.76756 -1.35772 -3.53358 0.0374419
98 1 4.12241 -1.03623 0.449781 -3.5334 0.0654875
99 1 3.64521 0.792769 2.25728 -3.4763 0.545059
100 1 6.31932 -2.29227 -3.16522 -3.53581 0.00639361
101 1 5.84085 -0.544335 -1.35772 -3.54608 0.0115677
102 1 5.38082 1.20165 0.449781 -3.54445 0.0199871
103 1 4.96595 2.93624 2.25728 -3.51709 0.0391036
104 1 7.59789 -0.09283 -3.16522 -3.54154 0.00252634
105 1 7.1544 1.64419 -1.35772 -3.53934 0.00135415
106 1 6.71599 3.38892 0.449781 -3.53723 0.00489711
107 1 6.26377 5.13959 2.25728 -3.53567 0.00529478
108 1 8.9108 2.0954 -3.16522 -3.53882 0.00113462
109 1 8.45947 3.84573 -1.35772 -3.53926 0.00101187
110 1 7.99627 5.60398 0.449781 -3.54059 0.00150144
111 1 7.52825 7.35975 2.25728 -3.54225 0.00505102
112 1 10.202 4.29826 -3.16522 -3.54036 0.000418593
113 1 9.74308 6.05237 -1.35772 -3.54103 0.00148678
114 1 9.28915 7.80247 0.449781 -3.54049 0.00156066
115 1 8.84537 9.54786 2.25728 -3.53981 0.000488764
116 1 11.4993 6.49328 -3.16522 -3.54048 0.000782194
117 1 11.0535 8.2408 -1.35772 -3.54004 0.000455152
118 1 10.6136 9.9857 0.449781 -3.53995 0.000208102
119 1 10.1793 11.7293 2.25728 -3.5403 0.000212365
120 1 12.8178 8.67724 -3.16522 -3.54006 0.000198112
121 1 12.381 10.422 -1.35772 -3.54005 0.00010673
122 1 11.949 12.1652 0.449781 -3.53991 9.74427e-05
123 1 11.5218 13.9085 2.25728 -3.53946 0.000398541
124 1 14.1468 10.858 -3.16522 -3.53996 5.93169e-05
125 1 13.715 12.6027 -1.35772 -3.53976 0.000136542
126 1 13.2844 14.3486 0.449781 -3.53969 0.000269921
127 1 15.4764 13.0415 -3.16522 -3.53987 0.000113745
128 1 0.33719 -14.72 -1.35772 -3.26935 7.11538
129 1 1.92322 -14.3734 -3.16522 -3.45034 0.463801
130 1 1.38705 -12.5926 -1.35772 -3.45337 0.528682
131 2 0.9933 -11.0084 0.449781 -3.47601 1.33316
132 2 0.891716 -9.32022 2.25728 -3.26692 6.97436
133 1 3.24186 -12.291 -3.16522 -3.52097 0.0696542
134 1 2.9191 -10.5962 -1.35772 -3.49373 0.314387
135 1 2.4396 -8.79784 0.449781 -3.49183 3.55399
136 1 2.03548 -7.04592 2.25728 -3.31406 9.35702
137 1 4.61515 -10.1481 -3.16522 -3.53363 0.0231478
138 1 4.16967 -8.3852 -1.35772 -3.5321 0.00848483
139 1 3.68137 -6.59402 0.449781 -3.47607 0.670921
140 1 3.17053 -4.9156 2.25728 -3.4156 0.80138
141 1 5.88338 -7.95026 -3.16522 -3.54273 0.00928165
142 1 5.43587 -6.19723 -1.35772 -3.54067 0.0192975
143 1 5.01856 -4.47515 0.449781 -3.51478 0.051289
144 1 4.56193 -2.76756 2.25728 -3.53358 0.0374419
145 1 7.20247 -5.78372 -3.16522 -3.53824 0.00268127
146 1 6.77084 -4.03471 -1.35772 -3.53611 0.00869072
147 1 6.31932 -2.29227 0.449781 -3.53581 0.00639361
148 1 5.84085 -0.544335 2.25728 -3.54608 0.0115677
149 1 8.51122 -3.59692 -3.16522 -3.53893 0.00163807
150 1 8.0572 -1.83895 -1.35772 -3.54024 0.00254053
151 1 7.59789 -0.09283 0.449781 -3.54154 0.00252634
152 1 7.1544 1.64419 2.25728 -3.53934 0.00135415
153 1 9.80249 -1.40166 -3.16522 -3.54052 0.000847881
154 1 9.35668 0.348995 -1.35772 -3.53921 0.000759659
155 1 8.9108 2.0954 0.449781 -3.53882 0.00113462
156 1 8.45947 3.84573 2.25728 -3.53926 0.00101187
157 1 11.1065 0.789086 -3.16522 -3.5393 0.000422943
158 1 10.6579 2.54342 -1.35772 -3.53932 0.000439827
159 1 10.202 4.29826 0.449781 -3.54036 0.000418593
160 1 9.74308 6.05237 2.25728 -3.54103 0.00148678
161 1 12.4028 2.98622 -3.16522 -3.54004 0.000236053
162 1 11.9504 4.74168 -1.35772 -3.54046 0.000593524
163 1 11.4993 6.49328 0.449781 -3.54048 0.000782194
164 1 11.0535 8.2408 2.25728 -3.54004 0.000455152
165 1 13.7036 5.17918 -3.16522 -3.54034 0.000411751
166 1 13.2589 6.92998 -1.35772 -3.54018 0.000349998
167 1 12.8178 8.67724 0.449781 -3.54006 0.000198112
168 1 12.381 10.422 2.25728 -3.54005 0.00010673
169 1 15.0191 7.36455 -3.16522 -3.54015 0.00015542
170 1 14.5814 9.11234 -1.35772 -3.54007 9.03565e-05
171 1 14.1468 10.858 0.449781 -3.53996 5.93169e-05
172 1 13.715 12.6027 2.25728 -3.53976 0.000136542
173 1 16.3434 9.54711 -3.16522 -3.54004 4.3203e-05
174 1 15.9095 11.2944 -1.35772 -3.53992 6.57579e-05
175 1 15.4764 13.0415 0.449781 -3.53987 0.000113745
176 1 17.669 11.7315 -3.16522 -3.53999 5.67516e-05
177 1 17.2344 13.4808 -1.35772 -3.54001 6.25983e-05
178 1 18.9904 13.9199 -3.16522 -3.54011 3.19709e-05
179 1 0.337189 -14.72 2.25728 -3.26935 7.11537
180 1 1.92322 -14.3734 0.449781 -3.45034 0.463801
181 1 1.38705 -12.5926 2.25728 -3.45337 0.528681
182 1 3.61305 -14.07 -1.35772 -3.54504 0.0633366
183 1 3.24186 -12.291 0.449781 -3.52097 0.0696542
184 1 2.9191 -10.5962 2.25728 -3.49373 0.314387
185 1 5.38037 -13.7013 -3.16522 -3.54452 0.0168829
186 1 5.02458 -11.9378 -1.35772 -3.53075 0.0387057
187 1 4.61515 -10.1481 0.449781 -3.53363 0.0231478
188 1 4.16967 -8.3852 2.25728 -3.5321 0.00848483
189 1 6.75375 -11.5168 -3.16522 -3.53951 0.00886856
190 1 6.33207 -9.73507 -1.35772 -3.53941 0.0022417
191 1 5.88338 -7.95026 0.449781 -3.54273 0.00928165
192 1 5.43587 -6.19723 2.25728 -3.54067 0.0192975
193 1 8.05873 -9.30941 -3.16522 -3.54234 0.00175882
194 1 7.62656 -7.54017 -1.35772 -3.54225 0.00192559
195 1 7.20247 -5.78372 0.449781 -3.53824 0.00268127
196 1 6.77084 -4.03471 2.25728 -3.53611 0.00869072
197 1 9.37652 -7.11935 -3.16522 -3.54028 0.0003562
198 1 8.94914 -5.35765 -1.35772 -3.53917 0.00117169
199 1 8.51122 -3.59692 0.449781 -3.53893 0.00163807
200 1 8.0572 -1.83895 2.25728 -3.54024 0.00254053
201 1 10.69 -4.92476 -3.16522 -3.53995 0.000305655
202 1 10.249 -3.16083 -1.35772 -3.54047 0.000279788
203 1 9.80249 -1.40166 0.449781 -3.54052 0.000847881
204 1 9.35668 0.348995 2.25728 -3.53921 0.000759659
205 1 11.9915 -2.72637 -3.16522 -3.54058 7.0008e-05
206 1 11.5499 -0.966929 -1.35772 -3.54003 0.000140351
207 1 11.1065 0.789086 0.449781 -3.5393 0.000422943
208 1 10.6579 2.54342 2.25728 -3.53932 0.000439827
209 1 13.2959 -0.53075 -3.16522 -3.53997 4.53154e-05
210 1 12.8518 1.22831 -1.35772 -3.53979 0.000122929
211 1 12.4028 2.98622 0.44978 -3.54004 0.000236053
212 1 11.9504 4.74168 2.25728 -3.54046 0.000593524
213 1 14.5973 1.66628 -3.16522 -3.5402 6.74912e-05
214 1 14.1506 3.42432 -1.35772 -3.54033 0.000245932
215 1 13.7036 5.17918 0.449781 -3.54034 0.000411751
216 1 13.2589 6.92998 2.25728 -3.54018 0.000349998
217 1 15.9018 3.85977 -3.16522 -3.54038 0.000181653
218 1 15.4594 5.61379 -1.35772 -3.54027 0.000205881
219 1 15.0191 7.36455 0.449781 -3.54015 0.00015542
220 1 14.5814 9.11234 2.25728 -3.54007 9.03565e-05
221 1 17.2163 6.04746 -3.16522 -3.54026 8.58504e-05
222 1 16.7789 7.79837 -1.35772 -3.54015 5.85239e-05
223 1 16.3434 9.54711 0.449781 -3.54004 4.3203e-05
224 1 15.9095 11.2944 2.25728 -3.53992 6.57579e-05
225 1 18.5379 8.23248 -3.16522 -3.54014 1.96011e-05
226 1 18.1032 9.98237 -1.35772 -3.54005 3.15621e-05
227 1 17.669 11.7315 0.449781 -3.53999 5.67516e-05
228 1 17.2344 13.4808 2.25728 -3.54001 6.25983e-05
229 1 19.8609 10.4184 -3.16522 -3.54009 2.50909e-05
230 1 19.426 12.1691 -1.35772 -3.54008 3.59408e-05
231 1 18.9904 13.9199 0.44978 -3.54011 3.19709e-05
232 1 21.1813 12.607 -3.16522 -3.54014 2.05614e-05
233 1 20.745 14.3589 -1.35772 -3.54016 1.85232e-05
234 1 3.61305 -14.07 2.25728 -3.54504 0.0633366
235 1 5.38037 -13.7013 0.449781 -3.54452 0.0168829
236 1 5.02458 -11.9378 2.25728 -3.53075 0.0387057
237 1 7.55952 14.7819 -3.16522 -3.53939 0.00145882
238 1 7.158 -13.2843 -1.35772 -3.53782 0.00943161
239 1 6.75375 -11.5168 0.449781 -3.53951 0.00886856
240 1 6.33207 -9.73507 2.25728 -3.53941 0.0022417
241 1 8.91523 -12.8448 -3.16522 -3.53896 0.00275398
242 1 8.49057 -11.0826 -1.35772 -3.5407 0.00200181
243 1 8.05873 -9.30941 0.449781 -3.54234 0.00175882
244 1 7.62656 -7.54017 2.25728 -3.54225 0.00192559
245 1 10.2346 -10.6436 -3.16522 -3.54108 0.000530467
246 1 9.8031 -8.88154 -1.35772 -3.54151 0.000678909
247 1 9.37652 -7.11935 0.449781 -3.54028 0.0003562
248 1 8.94914 -5.35765 2.25728 -3.53917 0.00117169
249 1 11.5537 -8.44756 -3.16522 -3.5404 0.000249907
250 1 11.1235 -6.68773 -1.35772 -3.54001 0.000408205
251 1 10.69 -4.92476 0.449781 -3.53995 0.000305655
252 1 10.249 -3.16083 2.25728 -3.54047 0.000279788
253 1 12.8692 -6.25019 -3.16522 -3.54017 0.000197396
254 1 12.4317 -4.4885 -1.35772 -3.54047 8.77999e-05
255 1 11.9915 -2.72637 0.449781 -3.54058 7.0008e-05
256 1 11.5499 -0.966929 2.25728 -3.54003 0.000140351
257 1 14.1767 -4.05074 -3.16522 -3.54045 4.95642e-05
258 1 13.7369 -2.29055 -1.35772 -3.54032 1.91032e-05
259 1 13.2959 -0.53075 0.449781 -3.53997 4.53154e-05
260 1 12.8518 1.22831 2.25728 -3.53979 0.000122929
261 1 15.4834 -1.85283 -3.16522 -3.5402 2.18452e-05
262 1 15.0416 -0.093255 -1.35772 -3.54013 1.94452e-05
263 1 14.5973 1.66628 0.44978 -3.5402 6.74912e-05
264 1 14.1506 3.42432 2.25728 -3.54033 0.000245932
265 1 16.7886 0.344568 -3.16522 -3.54029 3.32346e-05
266 1 16.3453 2.10295 -1.35772 -3.54037 9.44207e-05
267 1 15.9018 3.85977 0.44978 -3.54038 0.000181653
268 1 15.4594 5.61379 2.25728 -3.54027 0.000205881
269 1 18.0963 2.53884 -3.16522 -3.54039 8.67459e-05
270 1 17.6556 4.29419 -1.35772 -3.54035 0.000101885
271 1 17.2163 6.04746 0.44978 -3.54026 8.58504e-05
272 1 16.7789 7.79837 2.25728 -3.54015 5.85239e-05
273 1 19.4109 4.72858 -3.16522 -3.54031 4.6811e-05
274 1 18.9737 6.48128 -1.35772 -3.54024 2.85578e-05
275 1 18.5379 8.23248 0.44978 -3.54014 1.96011e-05
276 1 18.1032 9.98237 2.25728 -3.54005 3.15621e-05
277 1 20.7308 6.91583 -3.16522 -3.54021 8.00941e-06
278 1 20.2957 8.66742 -1.35772 -3.54014 1.08834e-05
279 1 19.8609 10.4184 0.44978 -3.54009 2.50909e-05
280 1 19.426 12.1691 2.25728 -3.54008 3.59408e-05
281 1 22.0522 9.10333 -3.16522 -3.54016 9.91707e-06
282 1 21.617 10.8552 -1.35772 -3.54014 1.75509e-05
283 1 21.1813 12.607 0.44978 -3.54014 2.05614e-05
284 1 20.745 14.3589 2.25728 -3.54016 1.85232e-05
285 1 23.3719 11.2926 -3.16522 -3.54017 1.16449e-05
286 1 22.9356 13.0452 -1.35772 -3.54017 1.23476e-05
287 1 24.6891 13.4836 -3.16522 -3.54019 8.0377e-06
288 1 7.55952 14.7819 0.449781 -3.53939 0.00145882
289 1 7.158 -13.2843 2.25728 -3.53782 0.00943161
290 1 9.33394 -14.595 -1.35772 -3.53844 0.0014561
291 1 8.91523 -12.8448 0.449781 -3.53896 0.00275398
292 1 8.49057 -11.0826 2.25728 -3.5407 0.00200181
293 1 11.096 -14.1548 -3.16522 -3.53932 0.000761133
294 1 10.6671 -12.4023 -1.35772 -3.53992 0.000523903
295 1 10.2346 -10.6436 0.449781 -3.54108 0.000530467
296 1 9.8031 -8.88154 2.25728 -3.54151 0.000678909
297 1 12.4192 -11.9599 -3.16522 -3.54038 9.37208e-05
298 1 11.9853 -10.2047 -1.35772 -3.54063 0.000152596
299 1 11.5537 -8.44756 0.449781 -3.5404 0.000249907
300 1 11.1235 -6.68773 2.25728 -3.54001 0.000408205
301 1 13.738 -9.76468 -3.16522 -3.54024 6.95854e-05
302 1 13.304 -8.00897 -1.35772 -3.54009 0.000169228
303 1 12.8692 -6.25019 0.449781 -3.54017 0.000197396
304 1 12.4317 -4.4885 2.25728 -3.54047 8.77999e-05
305 1 15.0536 -7.56806 -3.16522 -3.54014 8.12809e-05
306 1 14.6157 -5.81032 -1.35772 -3.54031 7.21471e-05
307 1 14.1767 -4.05074 0.449781 -3.54045 4.95642e-05
308 1 13.7369 -2.29055 2.25728 -3.54032 1.91032e-05
309 1 16.3637 -5.36975 -3.16522 -3.5403 2.97269e-05
310 1 15.9238 -3.61177 -1.35772 -3.5403 2.86284e-05
311 1 15.4834 -1.85283 0.44978 -3.5402 2.18452e-05
312 1 15.0416 -0.093255 2.25728 -3.54013 1.94452e-05
313 1 17.6722 -3.17199 -3.16522 -3.54023 1.7355e-05
314 1 17.2309 -1.41404 -1.35772 -3.54023 1.93519e-05
315 1 16.7886 0.344568 0.44978 -3.54029 3.32346e-05
316 1 16.3453 2.10295 2.25728 -3.54037 9.44207e-05
317 1 18.9799 -0.975083 -3.16522 -3.54028 2.37271e-05
318 1 18.538 0.782113 -1.35772 -3.54035 5.09373e-05
319 1 18.0963 2.53884 0.44978 -3.54039 8.67459e-05
320 1 17.6556 4.29419 2.25728 -3.54035 0.000101885
321 1 20.2897 1.21928 -3.16522 -3.54035 4.81312e-05
322 1 19.8496 2.97446 -1.35772 -3.54035 5.68048e-05
323 1 19.4109 4.72858 0.44978 -3.54031 4.6811e-05
324 1 18.9737 6.48128 2.25728 -3.54024 2.85578e-05
325 1 21.6044 3.4102 -3.16522 -3.5403 2.90323e-05
326 1 21.167 5.16344 -1.35772 -3.54027 1.7313e-05
327 1 20.7308 6.91583 0.44978 -3.54021 8.00941e-06
328 1 20.2957 8.66742 2.25728 -3.54014 1.08834e-05
329 1 22.9232 5.599 -3.16522 -3.54023 5.42715e-06
330 1 22.4874 7.35132 -1.35772 -3.54019 4.24564e-06
331 1 22.0522 9.10333 0.44978 -3.54016 9.91707e-06
332 1 21.617 10.8552 2.25728 -3.54014 1.75509e-05
333 1 24.2433 7.78771 -3.16522 -3.54019 4.69725e-06
334 1 23.8077 9.5401 -1.35772 -3.54017 8.73469e-06
335 1 23.3719 11.2926 0.44978 -3.54017 1.16449e-05
336 1 22.9356 13.0452 2.25728 -3.54017 1.23476e-05
337 1 25.5624 9.97757 -3.16522 -3.54019 7.00974e-06
338 1 25.126 11.7305 -1.35772 -3.54019 7.94029e-06
339 1 24.6891 13.4836 0.44978 -3.54019 8.0377e-06
340 1 26.8795 12.1688 -3.16522 -3.5402 5.5762e-06
341 1 26.4421 13.9223 -1.35772 -3.5402 5.31496e-06
342 1 28.1948 14.3611 -3.16522 -3.5402 3.31231e-06
343 1 9.33394 -14.595 2.25728 -3.53844 0.0014561
344 1 11.096 -14.1548 0.449781 -3.53932 0.000761133
345 1 10.6671 -12.4023 2.25728 -3.53992 0.000523903
346 1 12.8528 -13.7125 -1.35772 -3.53994 0.00021182
347 1 12.4192 -11.9599 0.449781 -3.54038 9.37208e-05
348 1 11.9853 -10.2047 2.25728 -3.54063 0.000152596
349 1 14.608 -13.2702 -3.16522 -3.54019 4.62204e-05
350 1 14.1727 -11.5183 -1.35772 -3.54033 2.98629e-05
351 1 13.738 -9.76468 0.449781 -3.54024 6.95854e-05
352 1 13.304 -8.00897 2.25728 -3.54009 0.000169228
353 1 15.9265 -11.0767 -3.16522 -3.54019 2.36063e-05
354 1 15.4902 -9.32341 -1.35772 -3.54012 5.40022e-05
355 1 15.0536 -7.56806 0.449781 -3.54014 8.12809e-05
356 1 14.6157 -5.81032 2.25728 -3.54031 7.21471e-05
357 1 17.2417 -8.88157 -3.16522 -3.54014 2.95859e-05
358 1 16.8031 -7.12645 -1.35772 -3.54021 2.98528e-05
359 1 16.3637 -5.36975 0.44978 -3.5403 2.97269e-05
360 1 15.9238 -3.61177 2.25728 -3.5403 2.86284e-05
361 1 18.5531 -6.68492 -3.16522 -3.54022 1.08582e-05
362 1 18.1128 -4.92897 -1.35772 -3.54024 1.35831e-05
363 1 17.6722 -3.17199 0.44978 -3.54023 1.7355e-05
364 1 17.2309 -1.41404 2.25728 -3.54023 1.93519e-05
365 1 19.8627 -4.48825 -3.16522 -3.54022 6.76988e-06
366 1 19.4215 -2.732 -1.35772 -3.54023 1.18858e-05
367 1 18.9799 -0.975083 0.44978 -3.54028 2.37271e-05
368 1 18.538 0.782113 2.25728 -3.54035 5.09373e-05
369 1 21.172 -2.29232 -3.16522 -3.54026 1.30526e-05
370 1 20.7307 -0.53648 -1.35772 -3.54031 2.88249e-05
371 1 20.2897 1.21928 0.44978 -3.54035 4.81312e-05
372 1 19.8496 2.97446 2.25728 -3.54035 5.68048e-05
373 1 22.483 -0.09835 -3.16522 -3.5403 2.63592e-05
374 1 22.0431 1.6562 -1.35772 -3.54032 3.29678e-05
375 1 21.6044 3.4102 0.44978 -3.5403 2.90323e-05
376 1 21.167 5.16344 2.25728 -3.54027 1.7313e-05
377 1 23.7977 2.09306 -3.16522 -3.54028 1.76519e-05
378 1 23.3599 3.84627 -1.35772 -3.54026 1.17724e-05
379 1 22.9232 5.599 0.44978 -3.54023 5.42715e-06
380 1 22.4874 7.35132 2.25728 -3.54019 4.24564e-06
381 1 25.1156 4.28278 -3.16522 -3.54023 3.89284e-06
382 1 24.6791 6.0353 -1.35772 -3.54021 2.52991e-06
383 1 24.2433 7.78771 0.44978 -3.54019 4.69725e-06
384 1 23.8077 9.5401 2.25728 -3.54017 8.73469e-06
385 1 26.4347 6.47227 -3.16522 -3.5402 2.50243e-06
386 1 25.9985 8.22484 -1.35772 -3.54019 4.88354e-06
387 1 25.5624 9.97757 0.44978 -3.54019 7.00974e-06
388 1 25.126 11.7305 2.25728 -3.54019 7.94029e-06
389 1 27.7531 8.66255 -3.16522 -3.5402 4.35565e-06
390 1 27.3165 10.4155 -1.35772 -3.5402 5.34912e-06
391 1 26.8795 12.1688 0.44978 -3.5402 5.5762e-06
392 1 26.4421 13.9223 2.25728 -3.5402 5.31496e-06
393 1 29.0701 10.8539 -3.16522 -3.5402 3.91261e-06
394 1 28.6327 12.6074 -1.35772 -3.5402 3.79352e-06
395 1 28.1948 14.3611 0.44978 -3.5402 3.31231e-06
396 1 30.3855 13.0461 -3.16522 -3.54021 2.40395e-06
397 1 12.8528 -13.7125 2.25728 -3.53994 0.00021182
398 1 15.0428 14.7898 -1.35772 -3.53997 0.000105589
399 1 14.608 -13.2702 0.449781 -3.54019 4.62204e-05
400 1 14.1727 -11.5183 2.25728 -3.54033 2.98629e-05
401 1 16.799 -14.5794 -3.16522 -3.54012 3.86626e-05
402 1 16.3628 -12.8286 -1.35772 -3.54021 1.85337e-05
403 1 15.9265 -11.0767 0.449781 -3.54019 2.36063e-05
404 1 15.4902 -9.32341 2.25728 -3.54012 5.40022e-05
405 1 18.117 -12.3875 -3.16522 -3.54017 1.67948e-05
406 1 17.6796 -10.6351 -1.35772 -3.54014 2.21078e-05
407 1 17.2417 -8.88157 0.449781 -3.54014 2.95859e-05
408 1 16.8031 -7.12645 2.25728 -3.54021 2.98528e-05
409 1 19.4319 -10.1937 -3.16522 -3.54015 1.4527e-05
410 1 18.9928 -8.43983 -1.35772 -3.54018 1.21777e-05
411 1 18.5531 -6.68492 0.44978 -3.54022 1.08582e-05
412 1 18.1128 -4.92897 2.25728 -3.54024 1.35831e-05
413 1 20.7439 -7.99851 -3.16522 -3.54019 4.7791e-06
414 1 20.3035 -6.24374 -1.35772 -3.54021 4.3413e-06
415 1 19.8627 -4.48825 0.44978 -3.54022 6.76988e-06
416 1 19.4215 -2.732 2.25728 -3.54023 1.18858e-05
417 1 22.0543 -5.80303 -3.16522 -3.54021 2.29885e-06
418 1 21.6133 -4.04789 -1.35772 -3.54022 5.15217e-06
419 1 21.172 -2.29232 0.44978 -3.54026 1.30526e-05
420 1 20.7307 -0.53648 2.25728 -3.54031 2.88249e-05
421 1 23.3646 -3.6081 -3.16522 -3.54024 6.84974e-06
422 1 22.9237 -1.8532 -1.35772 -3.54027 1.53967e-05
423 1 22.483 -0.09835 0.44978 -3.5403 2.63592e-05
424 1 22.0431 1.6562 2.25728 -3.54032 3.29678e-05
425 1 24.6764 -1.41464 -3.16522 -3.54027 1.44515e-05
426 1 24.2366 0.339396 -1.35772 -3.54028 1.85886e-05
427 1 23.7977 2.09306 0.44978 -3.54028 1.76519e-05
428 1 23.3599 3.84627 2.25728 -3.54026 1.17724e-05
429 1 25.991 0.776916 -3.16522 -3.54026 1.04484e-05
430 1 25.5528 2.53001 -1.35772 -3.54025 7.50412e-06
431 1 25.1156 4.28278 0.44978 -3.54023 3.89284e-06
432 1 24.6791 6.0353 2.25728 -3.54021 2.52991e-06
433 1 27.3081 2.96716 -3.16522 -3.54023 2.55387e-06
434 1 26.8711 4.71975 -1.35772 -3.54021 1.50711e-06
435 1 26.4347 6.47227 0.44978 -3.5402 2.50243e-06
436 1 25.9985 8.22484 2.25728 -3.54019 4.88354e-06
437 1 28.6264 5.15715 -3.16522 -3.5402 1.2643e-06
438 1 28.1897 6.90978 -1.35772 -3.5402 2.7145e-06
439 1 27.7531 8.66255 0.44978 -3.5402 4.35565e-06
440 1 27.3165 10.4155 2.25728 -3.5402 5.34912e-06
441 1 29.9442 7.34769 -3.16522 -3.5402 2.59693e-06
442 1 29.5072 9.10067 -1.35772 -3.5402 3.51848e-06
443 1 29.0701 10.8539 0.44978 -3.5402 3.91261e-06
444 1 28.6327 12.6074 2.25728 -3.5402 3.79352e-06
445 1 31.261 9.53907 -3.16522 -3.5402 2.64447e-06
446 1 30.8234 11.2925 -1.35772 -3.54021 2.69628e-06
447 1 30.3855 13.0461 0.44978 -3.54021 2.40395e-06
448 1 32.5765 11.7312 -3.16522 -3.54021 1.71321e-06
449 1 32.1383 13.485 -1.35772 -3.54021 1.36218e-06
450 1 33.891 13.9238 -3.16522 -3.54021 6.70285e-07
451 1 15.0428 14.7898 2.25728 -3.53997 0.000105589
452 1 16.799 -14.5794 0.449781 -3.54012 3.86626e-05
453 1 16.3628 -12.8286 2.25728 -3.54021 1.85337e-05
454 1 18.554 -14.1391 -1.35772 -3.54016 2.12422e-05
455 1 18.117 -12.3875 0.449781 -3.54017 1.67948e-05
456 1 17.6796 -10.6351 2.25728 -3.54014 2.21078e-05
457 1 20.3079 -13.6991 -3.16522 -3.54016 1.58429e-05
458 1 19.8702 -11.9467 -1.35772 -3.54015 1.50086e-05
459 1 19.4319 -10.1937 0.44978 -3.54015 1.4527e-05
460 1 18.9928 -8.43983 2.25728 -3.54018 1.21777e-05
461 1 21.6227 -11.5062 -3.16522 -3.54016 1.03546e-05
462 1 21.1837 -9.75262 -1.35772 -3.54017 7.59139e-06
463 1 20.7439 -7.99851 0.44978 -3.54019 4.7791e-06
464 1 20.3035 -6.24374 2.25728 -3.54021 4.3413e-06
465 1 22.9352 -9.31203 -3.16522 -3.54019 3.64567e-06
466 1 22.495 -7.55772 -1.35772 -3.5402 2.12576e-06
467 1 22.0543 -5.80303 0.44978 -3.54021 2.29885e-06
468 1 21.6133 -4.04789 2.25728 -3.54022 5.15217e-06
469 1 24.2464 -7.11749 -3.16522 -3.54021 1.42799e-06
470 1 23.8056 -5.36289 -1.35772 -3.54022 2.65226e-06
471 1 23.3646 -3.6081 0.44978 -3.54024 6.84974e-06
472 1 22.9237 -1.8532 2.25728 -3.54027 1.53967e-05
473 1 25.5574 -4.92335 -3.16522 -3.54023 4.15283e-06
474 1 25.1168 -3.16893 -1.35772 -3.54025 8.6241e-06
475 1 24.6764 -1.41464 0.44978 -3.54027 1.44515e-05
476 1 24.2366 0.339396 2.25728 -3.54028 1.85886e-05
477 1 26.8698 -2.73033 -3.16522 -3.54025 8.4001e-06
478 1 26.4301 -0.976537 -1.35772 -3.54026 1.06948e-05
479 1 25.991 0.776916 0.44978 -3.54026 1.04484e-05
480 1 25.5528 2.53001 2.25728 -3.54025 7.50412e-06
481 1 28.1843 -0.538724 -3.16522 -3.54024 6.38829e-06
482 1 27.7459 1.21436 -1.35772 -3.54024 4.72633e-06
483 1 27.3081 2.96716 0.44978 -3.54023 2.55387e-06
484 1 26.8711 4.71975 2.25728 -3.54021 1.50711e-06
485 1 29.5008 1.65186 -3.16522 -3.54022 1.72871e-06
486 1 29.0633 3.40455 -1.35772 -3.54021 8.84594e-07
487 1 28.6264 5.15715 0.44978 -3.5402 1.2643e-06
488 1 28.1897 6.90978 2.25728 -3.5402 2.7145e-06
489 1 30.8183 3.84219 -3.16522 -3.5402 6.48686e-07
490 1 30.3812 5.5949 -1.35772 -3.5402 1.45098e-06
491 1 29.9442 7.34769 0.44978 -3.5402 2.59693e-06
492 1 29.5072 9.10067 2.25728 -3.5402 3.51848e-06
493 1 32.1356 6.03292 -3.16522 -3.5402 1.50841e-06
494 1 31.6983 7.7859 -1.35772 -3.5402 2.2158e-06
495 1 31.261 9.53907 0.44978 -3.5402 2.64447e-06
496 1 30.8234 11.2925 2.25728 -3.54021 2.69628e-06
497 1 33.4521 8.22432 -3.16522 -3.5402 1.73557e-06
498 1 33.0144 9.97765 -1.35772 -3.54021 1.85299e-06
499 1 32.5765 11.7312 0.44978 -3.54021 1.71321e-06
500 1 32.1383 13.485 2.25728 -3.54021 1.36218e-06
501 1 34.7676 10.4163 -3.16522 -3.54021 1.18385e-06
502 1 34.3294 12.17 -1.35772 -3.54021 9.66251e-07
503 1 33.891 13.9238 0.44978 -3.54021 6.70285e-07
504 1 36.0823 12.6088 -3.16522 -3.54021 4.75983e-07
505 1 35.6436 14.3627 -1.35772 -3.54022 2.82785e-07
506 1 18.554 -14.1391 2.25728 -3.54016 2.12422e-05
507 1 20.3079 -13.6991 0.44978 -3.54016 1.58429e-05
508 1 19.8702 -11.9467 2.25728 -3.54015 1.50086e-05
509 1 22.4987 14.7979 -3.16522 -3.54017 1.20454e-05
510 1 22.0611 -13.2593 -1.35772 -3.54017 1.15815e-05
511 1 21.6227 -11.5062 0.44978 -3.54016 1.03546e-05
512 1 21.1837 -9.75262 2.25728 -3.54017 7.59139e-06
513 1 23.8136 -12.8197 -3.16522 -3.54018 7.30529e-06
514 1 23.3747 -11.066 -1.35772 -3.54018 5.78124e-06
515 1 22.9352 -9.31203 0.44978 -3.54019 3.64567e-06
516 1 22.495 -7.55772 2.25728 -3.5402 2.12576e-06
517 1 25.1265 -10.6262 -3.16522 -3.54019 2.77552e-06
518 1 24.6867 -8.87191 -1.35772 -3.5402 1.74269e-06
519 1 24.2464 -7.11749 0.44978 -3.54021 1.42799e-06
520 1 23.8056 -5.36289 2.25728 -3.54022 2.65226e-06
521 1 26.4383 -8.43225 -3.16522 -3.54021 1.0779e-06
522 1 25.998 -6.67781 -1.35772 -3.54022 1.838e-06
523 1 25.5574 -4.92335 0.44978 -3.54023 4.15283e-06
524 1 25.1168 -3.16893 2.25728 -3.54025 8.6241e-06
525 1 27.7501 -6.23863 -3.16522 -3.54023 2.70779e-06
526 1 27.3099 -4.48438 -1.35772 -3.54024 5.26556e-06
527 1 26.8698 -2.73033 0.44978 -3.54025 8.4001e-06
528 1 26.4301 -0.976537 2.25728 -3.54026 1.06948e-05
529 1 29.0628 -4.04588 -3.16522 -3.54024 5.13098e-06
530 1 28.6233 -2.29214 -1.35772 -3.54025 6.46721e-06
531 1 28.1843 -0.538724 0.44978 -3.54024 6.38829e-06
532 1 27.7459 1.21436 2.25728 -3.54024 4.72633e-06
533 1 30.3773 -1.85423 -3.16522 -3.54024 4.04472e-06
534 1 29.9388 -0.101046 -1.35772 -3.54023 3.1126e-06
535 1 29.5008 1.65186 0.44978 -3.54022 1.72871e-06
536 1 29.0633 3.40455 2.25728 -3.54021 8.84594e-07
537 1 31.6934 0.336617 -3.16522 -3.54022 1.2362e-06
538 1 31.2556 2.08947 -1.35772 -3.54021 5.94074e-07
539 1 30.8183 3.84219 0.44978 -3.5402 6.48686e-07
540 1 30.3812 5.5949 2.25728 -3.5402 1.45098e-06
541 1 33.0103 2.52723 -3.16522 -3.54021 3.6869e-07
542 1 32.5729 4.28006 -1.35772 -3.5402 7.83535e-07
543 1 32.1356 6.03292 0.44978 -3.5402 1.50841e-06
544 1 31.6983 7.7859 2.25728 -3.5402 2.2158e-06
545 1 34.3272 4.71813 -3.16522 -3.5402 8.84093e-07
546 1 33.8897 6.47116 -1.35772 -3.5402 1.37578e-06
547 1 33.4521 8.22432 0.44978 -3.5402 1.73557e-06
548 1 33.0144 9.97765 2.25728 -3.54021 1.85299e-06
549 1 35.6435 6.90954 -3.16522 -3.5402 1.1201e-06
550 1 35.2056 8.66286 -1.35772 -3.54021 1.24212e-06
551 1 34.7676 10.4163 0.44978 -3.54021 1.18385e-06
552 1 34.3294 12.17 2.25728 -3.54021 9.66251e-07
553 1 36.959 9.10149 -3.16522 -3.54021 8.12787e-07
554 1 36.5207 10.8551 -1.35772 -3.54021 6.78369e-07
555 1 36.0823 12.6088 0.44978 -3.54021 4.75983e-07
556 1 35.6436 14.3627 2.25728 -3.54022 2.82785e-07
557 1 38.2737 11.2938 -3.16522 -3.54021 3.36566e-07
558 1 37.8351 13.0476 -1.35772 -3.54022 2.00407e-07
559 1 39.588 13.4863 -3.16522 -3.54022 8.20659e-08
560 1 22.4987 14.7979 0.44978 -3.54017 1.20454e-05
561 1 22.0611 -13.2593 2.25728 -3.54017 1.15815e-05
562 1 24.2517 -14.5732 -1.35772 -3.54018 7.89632e-06
563 1 23.8136 -12.8197 0.44978 -3.54018 7.30529e-06
564 1 23.3747 -11.066 2.25728 -3.54018 5.78124e-06
565 1 26.0042 -14.1341 -3.16522 -3.54019 4.79733e-06
566 1 25.5657 -12.3802 -1.35772 -3.54019 3.93092e-06
567 1 25.1265 -10.6262 0.44978 -3.54019 2.77552e-06
568 1 24.6867 -8.87191 2.25728 -3.5402 1.74269e-06
569 1 27.3176 -11.9409 -3.16522 -3.5402 1.81519e-06
570 1 26.8782 -10.1866 -1.35772 -3.54021 1.20496e-06
571 1 26.4383 -8.43225 0.44978 -3.54021 1.0779e-06
572 1 25.998 -6.67781 2.25728 -3.54022 1.838e-06
573 1 28.6301 -9.74737 -3.16522 -3.54022 6.5629e-07
574 1 28.1902 -7.99298 -1.35772 -3.54022 1.22266e-06
575 1 27.7501 -6.23863 0.44978 -3.54023 2.70779e-06
576 1 27.3099 -4.48438 2.25728 -3.54024 5.26556e-06
577 1 29.9424 -7.55408 -3.16522 -3.54023 1.68577e-06
578 1 29.5026 -5.79989 -1.35772 -3.54023 3.27439e-06
579 1 29.0628 -4.04588 0.44978 -3.54024 5.13098e-06
580 1 28.6233 -2.29214 2.25728 -3.54025 6.46721e-06
581 1 31.2556 -5.36149 -3.16522 -3.54024 3.15192e-06
582 1 30.8163 -3.60772 -1.35772 -3.54024 4.00575e-06
583 1 30.3773 -1.85423 0.44978 -3.54024 4.04472e-06