LAMMPS (29 Aug 2024)
Running on 4 partitions of processors
    Step     MaxReplicaForce  MaxAtomForce      GradV0         GradV1         GradVc          EBF            EBR            RDT            RD1            PE1            RD2            PE2            RD3            PE3            RD4            PE4       
         0   6.6902289        2.1202218      0.00020147895  0.0002213151   6.6432424      4.4276333      4.0067187      20.315346      0              -12890.717     0.33333333     -12886.547     0.66666667     -12886.289     1              -12890.296     
      1000   5.2349797e-07    1.9767719e-16  4.1498301e-09  5.2349797e-07  0.68998834     0.68629784     0.26538321     21.46247       0              -12890.717     0.33333333     -12890.403     0.66666667     -12890.03      1              -12890.296     
      2000   3.9344998e-07    3.9544918e-15  1.9047304e-09  3.9344998e-07  0.68998819     0.68629771     0.26538309     21.462472      0              -12890.717     0.33333333     -12890.403     0.66666667     -12890.03      1              -12890.296     
      3000   3.1675104e-07    4.856542e-17   1.2239157e-09  3.1675104e-07  0.68998807     0.68629763     0.26538301     21.462474      0              -12890.717     0.33333333     -12890.403     0.66666667     -12890.03      1              -12890.296     
      4000   2.6029313e-07    3.1830938e-17  8.5109628e-10  2.6029313e-07  0.68998796     0.68629757     0.26538294     21.462475      0              -12890.717     0.33333333     -12890.403     0.66666667     -12890.03      1              -12890.296     
      5000   2.1711865e-07    2.2309485e-17  6.0628187e-10  2.1711865e-07  0.68998787     0.68629751     0.26538289     21.462477      0              -12890.717     0.33333333     -12890.403     0.66666667     -12890.03      1              -12890.296     
      6000   1.832166e-07     1.6189567e-17  4.3760839e-10  1.832166e-07   0.68998779     0.68629747     0.26538285     21.462478      0              -12890.717     0.33333333     -12890.403     0.66666667     -12890.03      1              -12890.296     
      7000   1.5560672e-07    1.444693e-17   3.172191e-10   1.5560672e-07  0.68998771     0.68629743     0.26538281     21.462479      0              -12890.717     0.33333333     -12890.403     0.66666667     -12890.03      1              -12890.296     
      8000   1.3305716e-07    8.8786239e-18  2.314921e-10   1.3305716e-07  0.68998765     0.68629739     0.26538277     21.46248       0              -12890.717     0.33333333     -12890.403     0.66666667     -12890.03      1              -12890.296     
      9000   1.1428067e-07    6.6501249e-18  1.6958258e-10  1.1428067e-07  0.68998759     0.68629736     0.26538274     21.46248       0              -12890.717     0.33333333     -12890.403     0.66666667     -12890.03      1              -12890.296     
     10000   9.840297e-08     4.9906312e-18  1.2445542e-10  9.840297e-08   0.68998754     0.68629733     0.26538271     21.462481      0              -12890.717     0.33333333     -12890.403     0.66666667     -12890.03      1              -12890.296     
Climbing replica = 3
    Step     MaxReplicaForce  MaxAtomForce      GradV0         GradV1         GradVc          EBF            EBR            RDT            RD1            PE1            RD2            PE2            RD3            PE3            RD4            PE4       
     10000   0.26247965       0.00077752025  1.2491668e-10  9.840297e-08   0.68998754     0.68629733     0.26538271     21.462481      0              -12890.717     0.33333333     -12890.403     0.66666667     -12890.03      1              -12890.296     
     11000   0.5540185        0.012382966    9.2561449e-11  8.5337042e-08  1.2250501      1.2277245      0.80680984     21.932633      0              -12890.717     0.38127503     -12890.61      0.77202591     -12889.489     1              -12890.296     
     12000   0.074808182      4.6245693e-06  6.9566338e-11  7.4371558e-08  0.46356132     0.51273153     0.091816907    21.378221      0              -12890.717     0.22645686     -12890.651     0.45415564     -12890.204     1              -12890.296     
     13000   0.17127464       0.0025681894   5.2484655e-11  6.4853817e-08  0.58319843     0.6202189      0.19930428     21.288389      0              -12890.717     0.18612626     -12890.62      0.37325139     -12890.096     1              -12890.296     
     14000   0.16140944       0.0017279569   3.9803627e-11  5.6586628e-08  0.36236676     0.80901436     0.38809974     21.432573      0              -12890.717     0.42368756     -12890.549     0.84537817     -12889.907     1              -12890.296     
     15000   0.13873794       5.6975855e-06  3.049221e-11   4.9445606e-08  0.46596375     0.51781766     0.096903043    21.443929      0              -12890.717     0.26686069     -12890.652     0.53618607     -12890.199     1              -12890.296     
     16000   0.040143591      4.3547588e-06  2.3699957e-11  4.33024e-08    0.51924595     0.54398217     0.12306755     21.348581      0              -12890.717     0.1996679      -12890.643     0.39995889     -12890.173     1              -12890.296     
     17000   0.28989119       9.8097111e-05  1.8553804e-11  3.7814544e-08  0.75679957     0.72457682     0.3036622      21.482795      0              -12890.717     0.33514722     -12890.445     0.66610734     -12889.992     1              -12890.296     
     18000   0.47612109       0.0035579848   1.4772098e-11  3.3027056e-08  1.153302       1.1300162      0.70910155     21.906595      0              -12890.717     0.37605208     -12890.613     0.76131044     -12889.586     1              -12890.296     
     19000   0.070852784      4.457117e-06   1.199846e-11   2.8948221e-08  0.4675022      0.51458077     0.093666151    21.374781      0              -12890.717     0.22354004     -12890.65      0.44825044     -12890.202     1              -12890.296     
     20000   1.0165568        0.15865915     9.8848425e-12  2.5329503e-08  1.1408559      1.2661616      0.84524698     21.13754       0              -12890.717     0.18005514     -12890.58      0.36138959     -12889.45      1              -12890.296     
    Step     MaxReplicaForce  MaxAtomForce      GradV0         GradV1         GradVc          EBF            EBR            RDT            RD1            PE1            RD2            PE2            RD3            PE3            RD4            PE4       
         0   3.8877503        2.050395       0.0002213151   0.00019192586  3.840074       1.25636        1.6772746      7.6576956      0              -12890.296     0.33333333     -12889.039     0.66666667     -12889.289     1              -12890.717     
      1000   5.3353858e-07    2.0957629e-16  5.3353858e-07  4.9333159e-09  0.57023086     0.17289835     0.59381297     8.2905049      0              -12890.296     0.33333333     -12890.123     0.66666667     -12890.472     1              -12890.717     
      2000   4.0372959e-07    7.5108212e-16  4.0372959e-07  2.3281074e-09  0.57023098     0.17289846     0.59381308     8.2905027      0              -12890.296     0.33333333     -12890.123     0.66666667     -12890.472     1              -12890.717     
      3000   3.2862435e-07    5.6540516e-16  3.2862435e-07  1.3864744e-09  0.57023106     0.17289853     0.59381315     8.2905011      0              -12890.296     0.33333333     -12890.123     0.66666667     -12890.472     1              -12890.717     
      4000   2.7235473e-07    3.4929148e-17  2.7235473e-07  8.6407396e-10  0.57023112     0.17289859     0.59381321     8.2904997      0              -12890.296     0.33333333     -12890.123     0.66666667     -12890.472     1              -12890.717     
      5000   2.2893127e-07    3.06527e-15    2.2893127e-07  5.5060712e-10  0.57023117     0.17289864     0.59381326     8.2904985      0              -12890.296     0.33333333     -12890.123     0.66666667     -12890.472     1              -12890.717     
      6000   1.945616e-07     1.9852637e-17  1.945616e-07   3.5814779e-10  0.5702312      0.17289868     0.5938133      8.2904974      0              -12890.296     0.33333333     -12890.123     0.66666667     -12890.472     1              -12890.717     
      7000   1.8940741e-07    2.7087845e-15  1.6635142e-07  2.3773813e-10  0.57023124     0.17289872     0.59381334     8.2904965      0              -12890.296     0.33333333     -12890.123     0.66666667     -12890.472     1              -12890.717     
      8000   1.4316082e-07    6.9545432e-17  1.4316082e-07  1.6385023e-10  0.57023127     0.17289875     0.59381338     8.2904956      0              -12890.296     0.33333333     -12890.123     0.66666667     -12890.472     1              -12890.717     
      9000   1.2382188e-07    5.9904277e-17  1.2382188e-07  1.1856545e-10  0.5702313      0.17289879     0.59381341     8.2904949      0              -12890.296     0.33333333     -12890.123     0.66666667     -12890.472     1              -12890.717     
     10000   1.0742882e-07    7.7618627e-17  1.0742882e-07  9.0482364e-11  0.57023133     0.17289881     0.59381344     8.2904942      0              -12890.296     0.33333333     -12890.123     0.66666667     -12890.472     1              -12890.717     
Climbing replica = 2
    Step     MaxReplicaForce  MaxAtomForce      GradV0         GradV1         GradVc          EBF            EBR            RDT            RD1            PE1            RD2            PE2            RD3            PE3            RD4            PE4       
     10000   0.24465415       0.003212158    1.0742883e-07  9.1146265e-11  0.57023133     0.17289881     0.59381343     8.2904942      0              -12890.296     0.33333333     -12890.123     0.66666667     -12890.472     1              -12890.717     
     11000   0.0018248235     4.5904465e-07  9.4052152e-08  7.3337049e-11  0.34500015     0.23921487     0.66012949     8.3810007      0              -12890.296     0.23879718     -12890.056     0.61937027     -12890.63      1              -12890.717     
     12000   1.9984688e-07    1.8970156e-14  8.2442534e-08  6.1635744e-11  0.34557412     0.23905658     0.6599712      8.381482       0              -12890.296     0.23887956     -12890.057     0.61943978     -12890.63      1              -12890.717     
     13000   7.2347538e-08    2.7434348e-18  7.2347538e-08  5.3188646e-11  0.34557406     0.23905658     0.6599712      8.3814814      0              -12890.296     0.23887964     -12890.057     0.61943982     -12890.63      1              -12890.717     
     14000   6.3615889e-08    2.1306851e-18  6.3615889e-08  4.6749359e-11  0.34557408     0.23905658     0.6599712      8.381481       0              -12890.296     0.23887964     -12890.057     0.61943982     -12890.63      1              -12890.717     
     15000   5.5930853e-08    1.6525044e-18  5.5930853e-08  4.1510002e-11  0.3455741      0.23905657     0.65997119     8.3814806      0              -12890.296     0.23887964     -12890.057     0.61943982     -12890.63      1              -12890.717     
     16000   6.9093228e-08    1.2227636e-15  4.9175181e-08  3.7088502e-11  0.34557412     0.23905657     0.65997119     8.3814802      0              -12890.296     0.23887964     -12890.057     0.61943982     -12890.63      1              -12890.717     
     17000   4.3347263e-08    9.4777339e-17  4.3347263e-08  3.3349126e-11  0.34557413     0.23905657     0.65997119     8.3814799      0              -12890.296     0.23887965     -12890.057     0.61943982     -12890.63      1              -12890.717     
     18000   3.8169726e-08    7.7371374e-19  3.8169726e-08  3.0014157e-11  0.34557415     0.23905657     0.65997119     8.3814796      0              -12890.296     0.23887965     -12890.057     0.61943982     -12890.63      1              -12890.717     
     19000   6.8325566e-08    1.4861667e-15  3.3587579e-08  2.8604466e-11  0.34557416     0.23905657     0.65997119     8.3814794      0              -12890.296     0.23887965     -12890.057     0.61943982     -12890.63      1              -12890.717     
     20000   2.9615041e-08    5.2764274e-19  2.9615041e-08  2.4447471e-11  0.34557417     0.23905657     0.65997119     8.3814791      0              -12890.296     0.23887965     -12890.057     0.61943982     -12890.63      1              -12890.717     
