#LAMMPS data file
3656 atoms
2 atom types
-125.2250000000 125.2250000000 xlo xhi
-14.9050426500 14.9050426500 ylo yhi
-3.6150000000 3.6150000000 zlo zhi
0.0 0.0 0.0 xy xz yz

Atoms # atomic

1 1 -57.5797182426 -3.9671613437 -3.1468531779
2 1 -57.0206984758 -5.5617999939 2.2756468254
3 1 -58.9599163245 -6.1566091008 -3.1468531326
4 1 -60.5708507309 -6.7313644834 2.2756469142
5 1 -62.0918509836 -5.9911901660 -3.1468530772
6 1 -66.5312773916 7.8995421574 -1.3393529444
7 1 -66.8814882190 6.0813028914 0.4681469985
8 1 -66.5312773931 7.8995421581 2.2756470554
9 1 -65.1696558732 5.6953035876 -1.3393530317
10 1 -64.8631683223 7.5878192207 0.4681470505
11 1 -63.2288226608 7.2942568097 -1.3393529264
12 1 -62.4837919241 8.7484328498 0.4681470628
13 1 -60.8728573826 8.1736778255 -1.3393530186
14 1 -66.8814882197 6.0813028912 -3.1468530000
15 1 -65.7554231783 2.2305440311 -1.3393530440
16 1 -65.3865670817 3.8894203314 0.4681469379
17 1 -65.1696558697 5.6953035868 2.2756469682
18 1 -64.8631683220 7.5878192210 -3.1468529372
19 1 -63.5592018248 3.5515737351 -1.3393530950
20 1 -63.4901940838 5.5105620149 0.4681469658
21 1 -63.2288226333 7.2942567575 2.2756470736
22 1 -62.4837919253 8.7484328497 -3.1468529272
23 1 -61.8509121860 5.4656131131 -1.3393530958
24 1 -60.4783972902 6.4243014469 0.4681469005
25 1 -60.8728573840 8.1736778211 2.2756469820
26 1 -59.7519287947 4.5162406186 -1.3393531640
27 1 -58.7398415313 6.9450341920 -1.3393531367
28 1 -66.7576289986 -1.3362536453 -1.3393530436
29 1 -66.2910202569 0.5061404610 0.4681469479
30 1 -65.7554231773 2.2305440305 2.2756469563
31 1 -65.3865670816 3.8894203322 -3.1468530619
32 1 -64.6864001123 0.0411102961 -1.3393530722
33 1 -63.5945048935 1.6858547174 0.4681468896
34 1 -63.5592018255 3.5515737382 2.2756469055
35 1 -63.4901940830 5.5105620156 -3.1468530543
36 1 -62.3635725330 0.1646377850 -1.3393531560
37 1 -61.6913480863 3.8299219309 0.4681468766
38 1 -61.8509122423 5.4656131616 2.2756469025
39 1 -60.4783972907 6.4243014461 -3.1468530921
40 1 -61.2500327687 2.3219371728 -1.3393531369
41 1 -59.4079046027 2.8172912164 0.4681468378
42 1 -59.7519287580 4.5162406025 2.2756468363
43 1 -58.7398415321 6.9450341917 2.2756468637
44 1 -57.6470221080 3.3207955074 -1.3393531777
45 1 -58.1892653190 5.1624262315 0.4681468373
46 1 -66.7576289984 -1.3362536450 2.2756469563
47 1 -66.2910202573 0.5061404605 -3.1468530536
48 1 -65.4060274332 -3.5504079936 -1.3393530607
49 1 -65.0126824474 -1.7138047032 0.4681469072
50 1 -64.6864001140 0.0411102958 2.2756469285
51 1 -63.5945048928 1.6858547174 -3.1468531123
52 1 -63.4136770750 -2.1555065669 -1.3393531359
53 1 -61.9754075613 -1.6222116255 0.4681468386
54 1 -62.3635725299 0.1646377846 2.2756468440
55 1 -61.6913480856 3.8299219322 -3.1468531117
56 1 -60.2998777064 -1.2288275081 -1.3393531677
57 1 -60.7528474280 0.6421105660 0.4681468525
58 1 -61.2500327687 2.3219371668 2.2756468644
59 1 -59.4079046025 2.8172912156 -3.1468531663
60 1 -59.0134000718 1.0771819381 -1.3393531610
61 1 -57.2341138260 1.5829572325 0.4681468319
62 1 -57.6470221167 3.3207955125 2.2756468227
63 1 -58.1892653181 5.1624262319 -3.1468531683
64 1 -65.7264768647 -5.2687690634 0.4681469821
65 1 -65.4060274322 -3.5504079937 2.2756469384
66 1 -65.0126824479 -1.7138047032 -3.1468530943
67 1 -63.8795743585 -5.6512509869 -1.3393530551
68 1 -63.5359127180 -3.8834925041 0.4681468849
69 1 -63.4136770737 -2.1555065700 2.2756468643
70 1 -61.9754075604 -1.6222116268 -3.1468531602
71 1 -61.7077169910 -4.0100970005 -1.3393531619
72 1 -59.9496146652 -2.9925048954 0.4681468256
73 1 -60.2998777063 -1.2288275083 2.2756468318
74 1 -60.7528474276 0.6421105651 -3.1468531486
75 1 -59.3165589480 -4.5391700337 -1.3393531468
76 1 -58.5816493103 -0.6601910312 0.4681468487
77 1 -59.0134000727 1.0771819383 2.2756468390
78 1 -57.2341138256 1.5829572330 -3.1468531671
79 1 -58.0758753693 -2.3275371782 -1.3393531752
80 1 -65.7264768650 -5.2687690633 -3.1468530184
81 1 -63.8795743556 -5.6512509862 2.2756469442
82 1 -63.5359127191 -3.8834925046 -3.1468531139
83 1 -62.0918509810 -5.9911901654 0.4681469162
84 1 -61.7077169908 -4.0100970060 2.2756468404
85 1 -59.9496146640 -2.9925048939 -3.1468531748
86 1 -60.5708507274 -6.7313644910 -1.3393530880
87 1 -58.9599163274 -6.1566091005 0.4681468553
88 1 -59.3165589453 -4.5391700297 2.2756468532
89 1 -58.5816493102 -0.6601910312 -3.1468531504
90 1 -57.0206984905 -5.5618000233 -1.3393531744
91 1 -57.5797182440 -3.9671613433 0.4681468275
92 1 -58.0758753684 -2.3275371774 2.2756468241
93 1 2.0773213013 -7.0054994364 -1.3393531822
94 1 1.6793406300 -5.1828092887 0.4681467858
95 1 1.2049752387 -3.4437370046 2.2756467989
96 1 3.7804429653 -6.6082508776 -3.1468532368
97 1 3.3750678428 -4.8062413096 -1.3393532543
98 1 2.9389837287 -3.0215433899 0.4681467567
99 1 2.4686649286 -1.2882635922 2.2756467701
100 1 5.0865277201 -4.3959892803 -3.1468532968
101 1 4.6570722713 -2.6115225389 -1.3393532772
102 1 4.2085464362 -0.8445460766 0.4681467362
103 1 3.7357014854 0.8989625765 2.2756467545
104 1 6.3754957918 -2.1869434627 -3.1468533011
105 1 5.9271505505 -0.4087579671 -1.3393533019
106 1 5.4540201041 1.3621925686 0.4681467177
107 1 4.9563493210 3.1215293068 2.2756467403
108 1 7.6416580722 0.0295255466 -3.1468533270
109 1 7.1722961010 1.8063876792 -1.3393533116
110 1 6.6912287185 3.5720806632 0.4681467258
111 1 6.2115948393 5.3204363201 2.2756467719
112 1 8.9016954420 2.2408558679 -3.1468533186
113 1 8.4384203498 4.0043587050 -1.3393532830
114 1 7.9810252300 5.7531709192 0.4681467722
115 1 7.5342880368 7.4887721210 2.2756468351
116 1 10.1931081139 4.4304848884 -3.1468532874
117 1 9.7482951377 6.1808394321 -1.3393532200
118 1 9.3071460498 7.9235217801 0.4681468372
119 1 8.8665141776 9.6627365546 2.2756468813
120 1 11.5112038146 6.6086095767 -3.1468531919
121 1 11.0725809605 8.3561648793 -1.3393531463
122 1 10.6330971964 10.1003859195 0.4681469006
123 1 10.1944673536 11.8414925133 2.2756469168
124 1 12.8350416842 8.7872325873 -3.1468531090
125 1 12.3989791702 10.5335201207 -1.3393530595
126 1 11.9654095236 12.2757862823 0.4681469543
127 1 11.5366055609 14.0147005671 2.2756469702
128 1 14.1642634499 10.9648722745 -3.1468530124
129 1 13.7338591267 12.7090147913 -1.3393529876
130 1 13.3057906262 14.4510979898 0.4681470195
131 1 15.4982130490 13.1431145757 -3.1468529254
132 2 -0.8947538045 -11.3534682733 2.2756469631
133 1 0.2324442777 -14.8639308714 -1.3393530769
134 1 1.8370645280 -14.3989008542 -3.1468530717
135 1 1.3014676225 -12.6744973887 -1.3393530735
136 1 0.9326113084 -11.0156212900 0.4681469255
137 1 0.7156998705 -9.2097381080 2.2756469027
138 1 3.1652113213 -12.2753592970 -3.1468531114
139 1 2.7901828724 -10.5762588845 -1.3393531285
140 1 2.4275322715 -8.8237385578 0.4681468543
141 1 2.0773213059 -7.0054994350 2.2756468177
142 1 4.5777890840 -10.1368005863 -3.1468531553
143 1 4.1781379098 -8.3888968176 -1.3393531913
144 1 3.7804429647 -6.6082508769 0.4681467632
145 1 3.3750678422 -4.8062413100 2.2756467452
146 1 5.9260956455 -7.9455120342 -3.1468532318
147 1 5.5071774385 -6.1782103599 -1.3393532932
148 1 5.0865277193 -4.3959892802 0.4681467027
149 1 4.6570722717 -2.6115225385 2.2756467228
150 1 7.2415455983 -5.7376492717 -3.1468533135
151 1 6.8107046849 -3.9654545757 -1.3393533062
152 1 6.3754957914 -2.1869434625 0.4681466988
153 1 5.9271505505 -0.4087579677 2.2756466977
154 1 8.5395960184 -3.5247821845 -3.1468533097
155 1 8.0959961693 -1.7497855348 -1.3393533246
156 1 7.6416580720 0.0295255465 0.4681466729
157 1 7.1722961010 1.8063876793 2.2756466880
158 1 9.8203860317 -1.3075262009 -3.1468533295
159 1 9.3638982213 0.4677872027 -1.3393533360
160 1 8.9016954420 2.2408558683 0.4681466818
161 1 8.4384203498 4.0043587048 2.2756467168
162 1 11.0971590411 0.9041840518 -3.1468533221
163 1 10.6432825590 2.6708575702 -1.3393533063
164 1 10.1931081139 4.4304848883 0.4681467127
165 1 9.7482951373 6.1808394322 2.2756467800
166 1 12.3932349283 3.0999672137 -3.1468532708
167 1 11.9505977202 4.8567418592 -1.3393532422
168 1 11.5112038146 6.6086095768 0.4681468083
169 1 11.0725809603 8.3561648790 2.2756468538
170 1 13.7086219278 5.2850426800 -3.1468531718
171 1 13.2715987186 7.0375175133 -1.3393531375
172 1 12.8350416843 8.7872325875 0.4681468908
173 1 12.3989791701 10.5335201207 2.2756469405
174 1 15.0313550586 7.4674941871 -3.1468530839
175 1 14.5970158683 9.2176226708 -1.3393530525
176 1 14.1642634500 10.9648722746 0.4681469876
177 1 13.7338591267 12.7090147918 2.2756470124
178 1 16.3587079569 9.6485541823 -3.1468530140
179 1 15.9277961112 11.3966938629 -1.3393529635
180 1 15.4982130489 13.1431145756 0.4681470749
181 2 -0.8594521811 -13.2191874287 0.4681469759
182 1 17.6888092472 11.8301104397 -3.1468529129
183 1 17.2584669015 13.5787452579 -1.3393528846
184 1 19.0153075532 14.0159091023 -3.1468528553
185 1 0.2324442802 -14.8639308708 2.2756469232
186 1 1.8370645275 -14.3989008544 0.4681469290
187 1 1.3014676232 -12.6744973898 2.2756469269
188 1 3.5714608667 -14.0158465352 -1.3393530948
189 1 3.1652113217 -12.2753592972 0.4681468889
190 1 2.7901828725 -10.5762588840 2.2756468720
191 1 5.3591356394 -13.6118028906 -3.1468530966
192 1 4.9685281166 -11.8746664403 -1.3393531243
193 1 4.5777890843 -10.1368005865 0.4681468452
194 1 4.1781379102 -8.3888968173 2.2756468094
195 1 6.7452155077 -11.4497888562 -3.1468531286
196 1 6.3400934208 -9.7013737831 -1.3393531725
197 1 5.9260956461 -7.9455120346 0.4681467680
198 1 5.5071774380 -6.1782103607 2.2756467072
199 1 8.0927364413 -9.2609003754 -3.1468531784
200 1 7.6696960451 -7.5023649589 -1.3393532494
201 1 7.2415455990 -5.7376492720 0.4681466869
202 1 6.8107046850 -3.9654545755 2.2756466941
203 1 9.4116614089 -7.0575558170 -3.1468532446
204 1 8.9775872070 -5.2937743462 -1.3393532850
205 1 8.5395960188 -3.5247821847 0.4681466906
206 1 8.0959961694 -1.7497855346 2.2756466754
207 1 10.7138519962 -4.8477108070 -3.1468532622
208 1 10.2700529861 -3.0799481644 -1.3393533135
209 1 9.8203860317 -1.3075262009 0.4681466705
210 1 9.3638982218 0.4677872030 2.2756466640
211 1 12.0031161659 -2.6344467983 -3.1468532924
212 1 11.5514197532 -0.8654583881 -1.3393533171
213 1 11.0971590412 0.9041840519 0.4681466773
214 1 10.6432825587 2.6708575700 2.2756466937
215 1 13.2900857687 -0.4253816219 -3.1468532793
216 1 12.8401420497 1.3387307700 -1.3393532967
217 1 12.3932349281 3.0999672135 0.4681467291
218 1 11.9505977198 4.8567418590 2.2756467577
219 1 14.5898273230 1.7724822658 -3.1468532397
220 1 14.1475737406 3.5300176547 -1.3393532181
221 1 13.7086219279 5.2850426801 0.4681468278
222 1 13.2715987190 7.0375175134 2.2756468625
223 1 15.9039378774 3.9615016474 -3.1468531401
224 1 15.4668557014 5.7152667734 -1.3393530985
225 1 15.0313550586 7.4674941871 0.4681469163
226 1 14.5970158684 9.2176226715 2.2756469474
227 1 17.2254793339 6.1469307234 -3.1468530508
228 1 16.7912837846 7.8985150811 -1.3393530382
229 1 16.3587079569 9.6485541826 0.4681469861
230 1 15.9277961108 11.3966938626 2.2756470363
231 1 18.5511790658 8.3307991744 -3.1468529633
232 1 18.1194373885 10.0809056217 -1.3393529352
233 1 17.6888092472 11.8301104396 0.4681470867
234 1 17.2584669013 13.5787452579 2.2756471152
235 1 19.8786136930 10.5150253967 -3.1468528678
236 1 19.4471932532 12.2653761463 -1.3393528645
237 1 19.0153075529 14.0159091023 0.4681471446
238 1 21.2032491838 12.7022948738 -3.1468528149
239 1 20.7695702768 14.4543371465 -1.3393528160
240 2 -2.0903834952 -14.7404060463 -1.3393529100
241 1 3.5714608664 -14.0158465357 2.2756469053
242 1 5.3591356390 -13.6118028906 0.4681469036
243 1 4.9685281163 -11.8746664408 2.2756468757
244 1 7.5573090794 14.8818324567 -3.1468530813
245 1 7.1468651548 -13.1911928713 -1.3393530995
246 1 6.7452155072 -11.4497888560 0.4681468712
247 1 6.3400934212 -9.7013737838 2.2756468272
248 1 8.9233619902 -12.7570624401 -3.1468530744
249 1 8.5098400862 -11.0128590591 -1.3393531271
250 1 8.0927364411 -9.2609003751 0.4681468214
251 1 7.6696960453 -7.5023649586 2.2756467502
252 1 10.2677080654 -10.5694582505 -3.1468530938
253 1 9.8416875771 -8.8164089108 -1.3393531697
254 1 9.4116614086 -7.0575558169 0.4681467553
255 1 8.9775872071 -5.2937743459 2.2756467147
256 1 11.5888329922 -8.3694945189 -3.1468531291
257 1 11.1531454026 -6.6108865329 -1.3393532144
258 1 10.7138519961 -4.8477108069 0.4681467382
259 1 10.2700529860 -3.0799481647 2.2756466864
260 1 12.8944928374 -6.1631143886 -3.1468531616
261 1 12.4508084423 -4.4006373285 -1.3393532330
262 1 12.0031161660 -2.6344467982 0.4681467073
263 1 11.5514197533 -0.8654583881 2.2756466831
264 1 14.1897764068 -3.9540671585 -3.1468531930
265 1 13.7406705273 -2.1902800441 -1.3393532471
266 1 13.2900857691 -0.4253816219 0.4681467204
267 1 12.8401420492 1.3387307701 2.2756467034
268 1 15.4834491411 -1.7481590461 -3.1468532051
269 1 15.0355126028 0.0127898525 -1.3393532259
270 1 14.5898273230 1.7724822656 0.4681467602
271 1 14.1475737408 3.5300176546 2.2756467821
272 1 16.7858847920 0.4497655125 -3.1468531610
273 1 16.3434476816 2.2063329891 -1.3393531586
274 1 15.9039378776 3.9615016477 0.4681468603
275 1 15.4668557011 5.7152667729 2.2756469014
276 1 18.0992005697 2.6406569571 -3.1468530903
277 1 17.6613443454 4.3942408866 -1.3393530682
278 1 17.2254793339 6.1469307234 0.4681469493
279 1 16.7912837845 7.8985150806 2.2756469617
280 1 19.4193799471 4.8279488372 -3.1468529960
281 1 18.9844444352 6.5797643100 -1.3393529899
282 1 18.5511790657 8.3307991743 0.4681470364
283 1 18.1194373888 10.0809056215 2.2756470645
284 1 20.7433708927 7.0137211589 -3.1468529218
285 1 20.3104584562 8.7645444650 -1.3393528869
286 1 19.8786136931 10.5150253968 0.4681471324
287 1 19.4471932530 12.2653761466 2.2756471353
288 1 22.0686388851 9.1997729004 -3.1468528369
289 1 21.6360189334 10.9508512166 -1.3393528287
290 1 21.2032491837 12.7022948734 0.4681471850
291 1 20.7695702772 14.4543371469 2.2756471843
292 1 23.3917401150 11.3881034525 -3.1468527867
293 1 22.9574429042 13.1405012874 -1.3393527717
294 2 -2.7626076240 -11.0751207870 -3.1468529683
295 1 24.7102666697 13.5796031821 -3.1468527413
296 1 7.5573090797 14.8818324567 0.4681469187
297 1 7.1468651544 -13.1911928716 2.2756469007
298 1 9.3386199232 -14.4949873821 -1.3393530683
299 1 8.9233619906 -12.7570624400 0.4681469257
300 1 8.5098400863 -11.0128590589 2.2756468730
301 1 11.1125478088 -14.0571731598 -3.1468530320
302 1 10.6906336160 -12.3160969192 -1.3393530505
303 1 10.2677080657 -10.5694582503 0.4681469065
304 1 9.8416875773 -8.8164089107 2.2756468304
305 1 12.4511347437 -11.8721042738 -3.1468529980
306 1 12.0213785565 -10.1232478748 -1.3393530557
307 1 11.5888329924 -8.3694945190 0.4681468708
308 1 11.1531454028 -6.6108865331 2.2756467859
309 1 13.7721323089 -9.6762183555 -3.1468530168
310 1 13.3347764127 -7.9216251099 -1.3393530877
311 1 12.8944928375 -6.1631143886 0.4681468385
312 1 12.4508084422 -4.4006373285 2.2756467671
313 1 15.0799355254 -7.4739339420 -3.1468530368
314 1 14.6362862930 -5.7154701950 -1.3393531150
315 1 14.1897764068 -3.9540671584 0.4681468069
316 1 13.7406705273 -2.1902800440 2.2756467528
317 1 16.3793932187 -5.2690844632 -3.1468530771
318 1 15.9319098250 -3.5091495149 -1.3393531449
319 1 15.4834491412 -1.7481590463 0.4681467947
320 1 15.0355126031 0.0127898528 2.2756467738
321 1 17.6775996598 -3.0663306085 -3.1468531002
322 1 17.2309434422 -1.3079717114 -1.3393531489
323 1 16.7858847919 0.4497655124 0.4681468389
324 1 16.3434476819 2.2063329892 2.2756468415
325 1 18.9820106910 -0.8692553477 -3.1468531039
326 1 18.5394106974 0.8861681010 -1.3393531007
327 1 18.0992005697 2.6406569568 0.4681469096
328 1 17.6613443456 4.3942408868 2.2756469317
329 1 20.2947789351 1.3223497808 -3.1468530496
330 1 19.8561048630 3.0754782782 -1.3393530360
331 1 19.4193799471 4.8279488375 0.4681470040
332 1 18.9844444353 6.5797643102 2.2756470101
333 1 21.6136016319 3.5107314241 -3.1468529802
334 1 21.1776997678 5.2624615663 -1.3393529493
335 1 20.7433708926 7.0137211588 0.4681470784
336 1 20.3104584564 8.7645444651 2.2756471133
337 1 22.9359022774 5.6977369322 -3.1468529137
338 1 22.5017768118 7.4488076478 -1.3393528592
339 1 22.0686388851 9.1997729005 0.4681471635
340 1 21.6360189336 10.9508512165 2.2756471712
341 1 24.2592903636 7.8849729427 -3.1468528310
342 1 23.8254965410 9.6363345325 -1.3393528105
343 1 23.3917401151 11.3881034525 0.4681472134
344 1 22.9574429042 13.1405012872 2.2756472283
345 1 25.5810393155 10.0739794778 -3.1468527926
346 1 25.1460343103 11.8264284870 -1.3393527702
347 1 24.7102666697 13.5796031822 0.4681472583
348 1 26.8992269886 12.2654789482 -3.1468527670
349 1 26.4621789733 14.0192428478 -1.3393527390
350 1 28.2135803722 14.4591218221 -3.1468527633
351 1 9.3386199231 -14.4949873820 2.2756469317
352 1 11.1125478086 -14.0571731595 0.4681469678
353 1 10.6906336162 -12.3160969196 2.2756469494
354 1 12.8788111827 -13.6167890766 -1.3393529799
355 1 12.4511347435 -11.8721042737 0.4681470018
356 1 12.0213785564 -10.1232478752 2.2756469441
357 1 14.6388647037 -13.1752383789 -3.1468529406
358 1 14.2067617293 -11.4272050291 -1.3393529685
359 1 13.7721323088 -9.6762183555 0.4681469831
360 1 13.3347764128 -7.9216251094 2.2756469123
361 1 15.9589122169 -10.9824044108 -3.1468529298
362 1 15.5207927064 -9.2294657955 -1.3393529725
363 1 15.0799355252 -7.4739339421 0.4681469628
364 1 14.6362862933 -5.7154701952 2.2756468852
365 1 17.2681281206 -8.7836018384 -3.1468529557
366 1 16.8249549752 -7.0272975431 -1.3393530163
367 1 16.3793932186 -5.2690844630 0.4681469232
368 1 15.9319098246 -3.5091495149 2.2756468550
369 1 18.5706116734 -6.5822841345 -3.1468530060
370 1 18.1245460488 -4.8246258075 -1.3393530568
371 1 17.6775996596 -3.0663306084 0.4681469002
372 1 17.2309434426 -1.3079717119 2.2756468507
373 1 19.8720453298 -4.3822333314 -3.1468530248
374 1 19.4265210544 -2.6254892162 -1.3393530642
375 1 18.9820106907 -0.8692553479 0.4681468963
376 1 18.5394106972 0.8861681010 2.2756468992
377 1 21.1779756845 -2.1862199893 -3.1468530338
378 1 20.7354697954 -0.4315284823 -1.3393530584
379 1 20.2947789349 1.3223497811 0.4681469503
380 1 19.8561048629 3.0754782783 2.2756469641
381 1 22.4903964627 0.0055818930 -3.1468530096
382 1 22.0511581737 1.7584743993 -1.3393530039
383 1 21.6136016319 3.5107314243 0.4681470202
384 1 21.1776997679 5.2624615660 2.2756470508
385 1 23.8080188553 2.1946415260 -3.1468529644
386 1 23.3712775966 3.9463939664 -1.3393529432
387 1 22.9359022777 5.6977369322 0.4681470869
388 1 22.5017768119 7.4488076476 2.2756471408
389 1 25.1287729911 4.3824964000 -3.1468529145
390 1 24.6936045428 6.1337710500 -1.3393528753
391 1 24.2592903639 7.8849729425 0.4681471691
392 1 23.8254965412 9.6363345321 2.2756471897
393 1 26.4505336732 6.5705357733 -3.1468528555
394 1 26.0157304099 8.3220892795 -1.3393528188
395 1 25.5810393154 10.0739794779 0.4681472075
396 1 25.1460343099 11.8264284870 2.2756472297
397 1 27.7710904649 8.7599782901 -3.1468528188
398 1 27.3354249099 10.5124271119 -1.3393527834
399 1 26.8992269885 12.2654789483 0.4681472327
400 1 26.4621789730 14.0192428474 2.2756472609
401 1 29.0888870868 10.9514106896 -3.1468528098
402 1 28.6516521077 12.7049510943 -1.3393527846
403 1 28.2135803720 14.4591218218 0.4681472369
404 1 30.4036184229 13.1445994374 -3.1468528199
405 2 -3.2039221866 -12.5831061791 2.2756470481
406 1 12.8788111828 -13.6167890766 2.2756470203
407 1 15.0689968976 14.8887130136 -1.3393529321
408 1 14.6388647038 -13.1752383791 0.4681470595
409 1 14.2067617285 -11.4272050289 2.2756470316
410 1 16.8273118893 -14.4826762420 -3.1468528825
411 1 16.3943378951 -12.7332657867 -1.3393528973
412 1 15.9589122171 -10.9824044110 0.4681470704
413 1 15.5207927064 -9.2294657951 2.2756470276
414 1 18.1466332793 -12.2912103105 -3.1468528692
415 1 17.7087074707 -10.5381429721 -1.3393529109
416 1 17.2681281205 -8.7836018386 0.4681470441
417 1 16.8249549754 -7.0272975430 2.2756469840
418 1 19.4571307710 -10.0946270454 -3.1468528907
419 1 19.0149673804 -8.3389818808 -1.3393529434
420 1 18.5706116734 -6.5822841344 0.4681469945
421 1 18.1245460489 -4.8246258073 2.2756469433
422 1 20.7620986384 -7.8957743953 -3.1468529218
423 1 20.3175440235 -6.1391092381 -1.3393529817
424 1 19.8720453301 -4.3822333314 0.4681469753
425 1 19.4265210544 -2.6254892162 2.2756469357
426 1 22.0660797703 -5.6976796964 -3.1468529486
427 1 21.6217656446 -3.9416677134 -1.3393530096
428 1 21.1779756845 -2.1862199894 0.4681469659
429 1 20.7354697956 -0.4315284824 2.2756469418
430 1 23.3733286795 -3.5025170431 -3.1468529687
431 1 22.9312184994 -1.7480644675 -1.3393530034
432 1 22.4903964627 0.0055818929 0.4681469903
433 1 22.0511581736 1.7584743990 2.2756469964
434 1 24.6856298070 -1.3106250580 -3.1468529674
435 1 24.2461538293 0.4423448341 -1.3393529710
436 1 23.8080188555 2.1946415262 0.4681470357
437 1 23.3712775963 3.9463939660 2.2756470568
438 1 26.0023090109 0.8789666096 -3.1468529454
439 1 25.5649826292 2.6309503228 -1.3393529253
440 1 25.1287729910 4.3824964001 0.4681470857
441 1 24.6936045425 6.1337710499 2.2756471245
442 1 27.3217558337 3.0675027509 -3.1468529105
443 1 26.8857957269 4.8190807002 -1.3393528863
444 1 26.4505336730 6.5705357732 0.4681471446
445 1 26.0157304101 8.3220892796 2.2756471814
446 1 28.6421536655 5.2561635344 -3.1468528791
447 1 28.2065620422 7.0079594649 -1.3393528566
448 1 27.7710904650 8.7599782900 0.4681471811
449 1 27.3354249100 10.5124271120 2.2756472167
450 1 29.9616922493 7.4459351228 -3.1468528647
451 1 29.5254855713 9.1984447419 -1.3393528499
452 1 29.0888870869 10.9514106895 0.4681471899
453 1 28.6516521074 12.7049510942 2.2756472153
454 1 31.2790982952 9.6373016867 -3.1468528833
455 1 30.8416836889 11.3907000254 -1.3393528423
456 1 30.4036184231 13.1445994376 0.4681471800
457 2 -3.7011081715 -14.2629330628 0.4681470988
458 1 32.5940628501 11.8301107389 -3.1468528853
459 1 32.1553896428 13.5842404534 -1.3393528584
460 1 33.9071729569 14.0237500702 -3.1468529109
461 1 15.0689968979 14.8887130136 2.2756470678
462 1 16.8273118894 -14.4826762420 0.4681471177
463 1 16.3943378946 -12.7332657870 2.2756471025
464 1 18.5820300353 -14.0431181241 -1.3393528580
465 1 18.1466332792 -12.2912103105 0.4681471308
466 1 17.7087074707 -10.5381429726 2.2756470892
467 1 20.3342873165 -13.6029379721 -3.1468528242
468 1 19.8968952996 -11.8492556615 -1.3393528486
469 1 19.4571307710 -10.0946270455 0.4681471092
470 1 19.0149673803 -8.3389818806 2.2756470567
471 1 21.6460582272 -11.4075544463 -3.1468528333
472 1 21.2050565464 -9.6519782627 -1.3393528795
473 1 20.7620986384 -7.8957743951 0.4681470782
474 1 20.3175440239 -6.1391092379 2.2756470185
475 1 22.9531998412 -9.2102608226 -3.1468528541
476 1 22.5101161164 -7.4539775645 -1.3393528984
477 1 22.0660797705 -5.6976796964 0.4681470510
478 1 21.6217656442 -3.9416677135 2.2756469905
479 1 24.2593408526 -7.0134500669 -3.1468528696
480 1 23.8162360463 -5.2577086966 -1.3393529087
481 1 23.3733286797 -3.5025170432 0.4681470314
482 1 22.9312184990 -1.7480644680 2.2756469967
483 1 25.5678219287 -4.8188382132 -3.1468529013
484 1 25.1262838812 -3.0643537059 -1.3393529366
485 1 24.6856298071 -1.3106250579 0.4681470327
486 1 24.2461538294 0.4423448343 2.2756470290
487 1 26.8802171189 -2.6268124155 -3.1468529229
488 1 26.4407471454 -0.8735902076 -1.3393529553
489 1 26.0023090111 0.8789666095 0.4681470547
490 1 25.5649826293 2.6309503237 2.2756470744
491 1 28.1962313274 -0.4367223890 -3.1468529320
492 1 27.7585499647 1.3156161709 -1.3393529229
493 1 27.3217558338 3.0675027510 0.4681470895
494 1 26.8857957272 4.8190807002 2.2756471136
495 1 29.5146420930 1.7524282029 -3.1468529307
496 1 29.0781202917 3.5043815025 -1.3393529134
497 1 28.6421536655 5.2561635342 0.4681471211
498 1 28.2065620417 7.0079594649 2.2756471434
499 1 30.8339398022 3.9416317521 -3.1468529276
500 1 30.3977641636 5.6937224648 -1.3393528989
501 1 29.9616922492 7.4459351226 0.4681471347
502 1 29.5254855719 9.1984447420 2.2756471502
503 1 32.1526393529 6.1317000728 -3.1468529151
504 1 31.7160196552 7.8843378371 -1.3393529037
505 1 31.2790982954 9.6373016870 0.4681471168
506 1 30.8416836891 11.3907000256 2.2756471577
507 1 33.4696928135 8.3230408903 -3.1468529220
508 1 33.0321364767 10.0763851572 -1.3393529109
509 1 32.5940628501 11.8301107389 0.4681471151
510 1 32.1553896429 13.5842404531 2.2756471414
511 1 34.7848035652 10.5155612074 -3.1468529533
512 1 34.3462416163 12.2695056531 -1.3393529381
513 1 33.9071729572 14.0237500703 0.4681470893
514 1 36.0983937962 12.7087923310 -3.1468529966
515 1 35.6591150600 14.4630567908 -1.3393529795
516 2 -5.0460507194 -12.0877524492 -3.1468529141
517 1 18.5820300355 -14.0431181242 2.2756471423
518 1 20.3342873167 -13.6029379718 0.4681471761
519 1 19.8968952995 -11.8492556615 2.2756471513
520 1 22.5220261742 14.8936791656 -3.1468527738
521 1 22.0850058170 -13.1623889771 -1.3393527939
522 1 21.6460582269 -11.4075544462 0.4681471671
523 1 21.2050565466 -9.6519782629 2.2756471204
524 1 23.8349224748 -12.7217232312 -3.1468527615
525 1 23.3948753262 -10.9662528462 -1.3393528061
526 1 22.9531998414 -9.2102608228 0.4681471456
527 1 22.5101161161 -7.4539775646 2.2756471015
528 1 25.1439158846 -10.5254672694 -3.1468527931
529 1 24.7020573530 -8.7694693185 -1.3393528234
530 1 24.2593408525 -7.0134500669 0.4681471302
531 1 23.8162360464 -5.2577086965 2.2756470911
532 1 26.4518916109 -8.3295269915 -3.1468528186
533 1 26.0098407679 -6.5739656372 -1.3393528626
534 1 25.5678219286 -4.8188382131 0.4681470986
535 1 25.1262838810 -3.0643537057 2.2756470630
536 1 27.7615083744 -6.1352709344 -3.1468528694
537 1 27.3205543726 -4.3807257295 -1.3393528916
538 1 26.8802171191 -2.6268124155 0.4681470772
539 1 26.4407471455 -0.8735902075 2.2756470444
540 1 29.0741386422 -3.9430852729 -3.1468529027
541 1 28.6347864832 -2.1896091604 -1.3393529186
542 1 28.1962313274 -0.4367223892 0.4681470680
543 1 27.7585499645 1.3156161710 2.2756470772
544 1 30.3897187047 -1.7525327734 -3.1468529383
545 1 29.9518266535 0.0001572334 -1.3393529456
546 1 29.5146420928 1.7524282031 0.4681470694
547 1 29.0781202920 3.5043815026 2.2756470865
548 1 31.7073381993 0.4371769628 -3.1468529602
549 1 31.2704162747 2.1894965652 -1.3393529472
550 1 30.8339398021 3.9416317520 0.4681470725
551 1 30.3977641636 5.6937224649 2.2756471012
552 1 33.0257676940 2.6268706399 -3.1468529541
553 1 32.5891590282 4.3792564382 -1.3393529309
554 1 32.1526393528 6.1317000730 0.4681470849
555 1 31.7160196549 7.8843378370 2.2756470964
556 1 34.3437913561 4.8172227083 -3.1468529518
557 1 33.9068593849 6.5700162500 -1.3393529384
558 1 33.4696928136 8.3230408902 0.4681470783
559 1 33.0321364770 10.0763851571 2.2756470890
560 1 35.6605439810 7.0085815640 -3.1468529761
561 1 35.2228808834 8.7619274628 -1.3393529657
562 1 34.7848035653 10.5155612071 0.4681470465
563 1 34.3462416159 12.2695056532 2.2756470620
564 1 36.9757498716 9.2008981219 -3.1468530134
565 1 36.5372794663 10.9547282547 -1.3393530154
566 1 36.0983937962 12.7087923310 0.4681470032
567 1 35.6591150598 14.4630567905 2.2756470207
568 1 38.2897096671 11.3938161914 -3.1468530739
569 1 37.8506452839 13.1479174199 -1.3393530696
570 2 -5.4405553115 -13.8278615796 2.2756471002
571 1 39.6030756116 13.5868593575 -3.1468531718
572 1 22.5220261742 14.8936791655 0.4681472264
573 1 22.0850058170 -13.1623889774 2.2756472061
574 1 24.2733312452 -14.4764998192 -1.3393527376
575 1 23.8349224750 -12.7217232310 0.4681472385
576 1 23.3948753262 -10.9662528467 2.2756471938
577 1 26.0240267549 -14.0363408737 -3.1468527271
578 1 25.5846148590 -12.2811658019 -1.3393527478
579 1 25.1439158845 -10.5254672696 0.4681472072
580 1 24.7020573531 -8.7694693185 2.2756471767
581 1 27.3345091202 -11.8408885395 -3.1468527579
582 1 26.8935566194 -10.0852581832 -1.3393527861
583 1 26.4518916106 -8.3295269915 0.4681471817
584 1 26.0098407681 -6.5739656371 2.2756471373
585 1 28.6439920112 -9.6456228513 -3.1468527960
586 1 28.2027653675 -7.8903047926 -1.3393528259
587 1 27.7615083740 -6.1352709338 0.4681471308
588 1 27.3205543727 -4.3807257295 2.2756471081
589 1 29.9546032241 -7.4516494573 -3.1468528590
590 1 29.5141453305 -5.6971280675 -1.3393528761
591 1 29.0741386422 -3.9430852727 0.4681470975
592 1 28.6347864835 -2.1896091607 2.2756470814
593 1 31.2675254380 -5.2593358234 -3.1468528882
594 1 30.8283069846 -3.5056956695 -1.3393529266
595 1 30.3897187047 -1.7525327733 0.4681470615
596 1 29.9518266534 0.0001572333 2.2756470545
597 1 32.5828302970 -3.0683930651 -3.1468529293
598 1 32.1447963580 -1.3154312166 -1.3393529537
599 1 31.7073381994 0.4371769629 0.4681470399
600 1 31.2704162745 2.1894965657 2.2756470530
601 1 33.8998498364 -0.8782010648 -3.1468529660
602 1 33.4626246965 0.8744185072 -1.3393529643
603 1 33.0257676939 2.6268706399 0.4681470462
604 1 32.5891590287 4.3792564382 2.2756470688
605 1 35.2175964402 1.3119214276 -3.1468529761
606 1 34.7806523260 3.0645584390 -1.3393529689
607 1 34.3437913558 4.8172227082 0.4681470482
608 1 33.9068593847 6.5700162499 2.2756470616
609 1 36.5350776528 3.5025354498 -3.1468530045
610 1 36.0978999456 5.2554736418 -1.3393529963
611 1 35.6605439809 7.0085815643 0.4681470236
612 1 35.2228808834 8.7619274627 2.2756470339
613 1 37.8515778377 5.6939403029 -3.1468530323
614 1 37.4138284710 7.4473082648 -1.3393530113
615 1 36.9757498715 9.2008981218 0.4681469864
616 1 36.5372794661 10.9547282549 2.2756469846
617 1 39.1668457288 7.8861181361 -3.1468530883
618 1 38.7284471430 9.6398744437 -1.3393530791
619 1 38.2897096672 11.3938161916 0.4681469258
620 1 37.8506452842 13.1479174202 2.2756469302
621 1 40.4810925294 10.0788000379 -3.1468531676
622 1 40.0422010991 11.8327830324 -1.3393531641
623 1 39.6030756116 13.5868593575 0.4681468283
624 1 41.7948230212 12.2716104425 -3.1468532805
625 1 41.3557239468 14.0256204073 -1.3393532902
626 1 43.1085975401 14.4642187249 -3.1468534071
627 1 24.2733312451 -14.4764998194 2.2756472624
628 1 26.0240267550 -14.0363408738 0.4681472729
629 1 25.5846148590 -12.2811658017 2.2756472523
630 1 27.7745437792 -13.5961818745 -1.3393527479
631 1 27.3345091203 -11.8408885395 0.4681472423
632 1 26.8935566196 -10.0852581831 2.2756472140
633 1 29.5252035900 -13.1562050746 -3.1468527720