#LAMMPS data file
3656 atoms
2 atom types
-125.2250000000 125.2250000000 xlo xhi
-14.9050426500 14.9050426500 ylo yhi
-3.6150000000 3.6150000000 zlo zhi
0.0 0.0 0.0 xy xz yz

Atoms # atomic

1 1 -57.4467618965 -13.4279772666 -3.1370840780
2 1 -60.8402032598 -14.3235487598 -3.1365488184
3 1 -58.6474713534 -8.1370390153 2.2836332190
4 1 -57.8539599732 -11.7715452676 2.2129679880
5 1 -59.7263828873 -12.1909104782 0.4790148836
6 1 -59.6026451045 -12.1286589130 -3.1395974652
7 1 -61.5356751454 -12.4279426054 2.4046155051
8 1 -62.0777718071 -14.6162778437 -0.7759508266
9 1 -61.7318434683 -10.6979787666 -3.1435586962
10 1 -62.0801514258 -14.6198946057 1.7338018974
11 1 -66.1143839141 -14.0993968266 -3.1369893324
12 1 0.6049663902 5.4294228342 -1.3298808347
13 1 -58.2537026328 -9.9586745838 0.4806631965
14 1 -57.8504924421 -11.7678494745 -1.2588616396
15 1 -60.3258689482 -8.5552313777 -3.1466320370
16 1 -59.9833887231 -10.3669270366 2.2728087199
17 1 -61.7585601693 -10.7922498255 0.4820176539
18 1 -61.5376043028 -12.4230441876 -1.4512947131
19 1 -63.6081713731 -9.2133900035 -3.1318952347
20 1 -63.6248581712 -10.9389269999 2.2480251424
21 1 -63.5931502440 -12.7499046261 0.4795246138
22 1 -63.8135964791 -12.5393249318 -3.1386036915
23 1 -65.5196523749 -10.6501437441 -3.1345243604
24 1 -65.7744110410 -12.3507309924 2.2766441978
25 1 -66.3083315088 -14.0902782767 0.4784570577
26 1 -67.6110480211 -11.9858994384 -3.1365061555
27 1 -67.9914955412 -13.7143838698 2.3089721104
28 1 -57.7278009860 -4.2109345721 -3.1556760579
29 1 -59.4559613008 -4.6029443111 2.2851796570
30 1 -60.3493963670 -8.5637451828 0.4869982516
31 1 -59.9762303330 -10.3784374605 -1.3179581692
32 1 -61.3061711204 -4.9754241904 -3.1292884225
33 1 -60.8279687606 -6.6874792042 2.2855772024
34 1 -63.5879783490 -9.1892690093 0.4734845727
35 1 -63.6273745088 -10.9424092975 -1.2919794311
36 1 -62.3895332432 -7.1024010246 -3.0783031112
37 1 -62.0411398203 -8.8648024422 2.2862281433
38 1 -65.4825648286 -10.6820932008 0.4760085012
39 1 -65.7757288331 -12.3534865261 -1.3205719896
40 1 -64.7359558674 -7.0164218307 -3.1675757684
41 1 -67.2310114399 -10.2167722259 2.2809588175
42 1 -67.6350265866 -11.9641843053 0.4777381792
43 1 -67.9920388365 -13.7151396034 -1.3526352049
44 1 -66.8283518228 -8.4284647192 -3.1355600460
45 1 -66.6731113637 13.8958569103 -1.3143268396
46 1 -66.6734350192 13.8954234984 2.2705457223
47 1 -65.3507091587 11.5895037590 -1.3254611930
48 1 -64.9662276865 13.4381215453 0.4780936162
49 1 -64.5335104342 -14.4600443026 2.1089869297
50 1 -63.4374796353 13.1137052314 -1.3773206936
51 1 -61.9137504327 13.0808930678 0.4776919336
52 1 -60.2810844790 13.6091682493 -1.3230202641
53 1 -66.3071799697 8.2343844100 -1.3302076771
54 1 -65.7705061587 9.9484598976 0.4778098557
55 1 -65.3510838502 11.5890341613 2.2814695242
56 1 -65.0747563182 13.4094949505 -3.1368885362
57 1 -63.5231703491 9.3001961259 -1.3306577165
58 1 -63.5458657585 11.1547764124 0.4777762645
59 1 -63.4381495996 13.1124781144 2.3333744249
60 1 -63.1851856949 -14.7983756027 -3.1362756022
61 1 -61.6870053541 11.3668076743 -1.3284362017
62 1 -59.8025564075 11.8868233149 0.4775484372
63 1 -60.2808677451 13.6079778201 2.2784813682
64 1 -59.4177208010 10.2148705900 -1.3247954241
65 1 -58.6689792041 14.2132627596 0.4773365500
66 1 -58.0950325886 12.4164183342 -1.3223059057
67 1 -66.7867072709 6.3888866872 0.4778884454
68 1 -66.3070503947 8.2345591000 2.2860901052
69 1 -65.7662017069 9.9540465208 -3.1368417662
70 1 -65.0898457915 5.9859309733 -1.3296306971
71 1 -64.7078229949 7.7743697712 0.4778615175
72 1 -63.5236802681 9.3004593943 2.2864359664
73 1 -63.5359920759 11.1642602582 -3.1369107925
74 1 -62.0061050957 5.8997182882 -1.3299197917
75 1 -62.3737819591 7.6890981526 0.4779797751
76 1 -61.6871134722 11.3664899271 2.2839324503
77 1 -61.8037813628 13.0858576202 -3.1373573382
78 1 -60.7590229627 8.1109584768 -1.3300627719
79 1 -61.2828040222 9.8135864926 0.4776655308
80 1 -59.4177245681 10.2150864420 2.2802756279
81 1 -58.6485854690 14.1909366357 -3.1370856024
82 1 -57.2414704770 8.9107971215 -1.3290369184
83 1 -57.6447591943 10.6466046677 0.4777342680
84 1 -58.0948735082 12.4165321839 2.2777439230
85 1 -66.7868298733 6.3891844236 -3.1370888486
86 1 -65.8136640775 2.4916989807 -1.3298182075
87 1 -65.4546132080 4.1059300519 0.4779382431
88 1 -65.0900323226 5.9859818532 2.2853569520
89 1 -64.7081738679 7.7753140555 -3.1370218759
90 1 -63.5705249109 3.7268228477 -1.3302649701
91 1 -63.5608536368 5.5485232010 0.4779990577
92 1 -62.3734653952 7.6923577147 -3.1374128792
93 1 -61.2774835673 9.8176415518 -3.1371609583
94 1 -59.8945496367 4.5409951157 -1.3300071055
95 1 -60.3027789882 6.2788089058 0.4776780147
96 1 -60.7588214599 8.1110396072 2.2855930139
97 1 -59.7636156340 11.8700208595 -3.1370894372
98 1 -58.5831839400 6.7438417106 -1.3304292047
99 1 -59.0227740326 8.4911442388 0.4777348851
100 1 -57.2415013821 8.9108389767 2.2845157115
101 1 -57.6312595551 10.6452521291 -3.1372682102
102 1 -66.8116452076 -1.0380573791 -1.3301588514
103 1 -66.3391664865 0.7894905755 0.4777154818
104 1 -65.8135756053 2.4915037987 2.2855236606
105 1 -65.4543062426 4.1065330146 -3.1372288625
106 1 -64.7236423539 0.3400927366 -1.3294254766
107 1 -63.5317291405 1.8833291062 0.4773484775
108 1 -63.5701476140 3.7262153012 2.2858692080
109 1 -63.5606385604 5.5503206683 -3.1373488506
110 1 -62.3875824007 0.2795206863 -1.3286347762
111 1 -61.6859375949 4.0446498052 0.4776892895
112 1 -62.0057652650 5.8995299529 2.2855102926
113 1 -60.3025969432 6.2804274108 -3.1371475432
114 1 -61.3281413969 2.4323135671 -1.3297874694
115 1 -59.4691604219 2.8329584730 0.4778418522
116 1 -58.5831442546 6.7439438802 2.2859269089
117 1 -59.0217340948 8.4966755000 -3.1372375938
118 1 -57.7024387635 3.2470848755 -1.3297862786
119 1 -58.1284188965 4.9917619442 0.4777529799
120 1 -66.8132828284 -1.0376696892 2.2857721120
121 1 -66.3388598373 0.7894135880 -3.1370577813
122 1 -65.4716065036 -3.3037337465 -1.3302969258
123 1 -65.1053711627 -1.4456272299 0.4787345301
124 1 -64.7243530039 0.3394275201 2.2850220998
125 1 -63.5302406661 1.8817654132 -3.1368054854
126 1 -63.5675385487 -1.8741375952 -1.3281691414
127 1 -62.0115079610 -1.5137812651 0.4766454489
128 1 -62.3886141331 0.2825431675 2.2840184479
129 1 -61.6859800277 4.0450869995 -3.1371711262
130 1 -60.3160160674 -1.1311983354 -1.3305520304
131 1 -60.7850631539 0.7149189774 0.4774021767
132 1 -61.3265170264 2.4328974389 2.2852639591
133 1 -59.4692914427 2.8327565969 -3.1373848494
134 1 -59.0626945236 1.0949216981 -1.3300469984
135 1 -57.2882219003 1.5015766784 0.4771064106
136 1 -59.8941850960 4.5413825390 2.2855005099
137 1 -58.1283636299 4.9914925306 -3.1372758904
138 1 -66.3496156595 -6.5908955000 -1.3295243421
139 1 -65.8549355590 -4.8923735402 0.4807472869
140 1 -65.4727429975 -3.2984768119 2.2857392786
141 1 -65.1029851974 -1.4447099498 -3.1382675921
142 1 -63.5969652750 -5.5000201099 -1.3345878199
143 1 -63.5742245827 -3.6970923187 0.4855689283
144 1 -63.5615729189 -1.8728856044 2.2835050935
145 1 -62.0144990002 -1.5115217149 -3.1363202767
146 1 -61.6871634093 -3.3672085906 -1.3312267123
147 1 -59.8954763583 -2.8710545272 0.4791416272
148 1 -60.3199973084 -1.1267534395 2.2858428445
149 1 -60.7864038426 0.7152225669 -3.1370036836
150 1 -59.4612255763 -4.5925515269 -1.3306427686
151 1 -58.6105283367 -0.6662672513 0.4753325796
152 1 -59.0618001453 1.0935679453 2.2854559536
153 1 -57.2881374445 1.5014244305 -3.1366856265
154 1 -58.1475948231 -2.4445636754 -1.3300079078
155 1 -66.8249485552 -8.4372061617 0.4768648157
156 1 -66.3842651863 -6.5993225884 2.2854347113
157 1 -65.8510785169 -4.8957133919 -3.1403021430
158 1 -65.1365385099 -8.7836141545 -1.3246445881
159 1 -64.7369937529 -7.0083155929 0.5085599135
160 1 8.8914840788 1.8876149685 0.4776947120
161 1 -63.5751708890 -3.6916951655 -3.1454152220
162 1 -62.0081943951 -8.9030399703 -1.3293807730
163 1 -62.3892922128 -7.0820714956 0.4162548541
164 1 -63.4493690012 -5.5312888432 2.2893459586
165 1 -59.8981745200 -2.8733486593 -3.1390405392
166 1 -60.7225916139 -6.7053715514 -1.3317741661
167 1 -61.2976563814 -4.9679443490 0.4697912564
168 1 -61.6756276694 -3.3722901203 2.2865221526
169 1 -58.6107090561 -0.6668802041 -3.1349760509
170 1 -59.0458098469 -6.3490349638 -3.1814344985
171 1 -57.7289801369 -4.2139439538 0.4961933656
172 1 -58.1542453453 -2.4232669488 2.2853354979
173 1 12.3677313770 10.2491526187 2.2852338463
174 1 15.0041027564 7.1731585457 -3.1372624133
175 1 14.5612640070 8.9296457508 -1.3297582239
176 1 14.1198974781 10.6856828285 0.4777398657
177 1 13.6801822605 12.4410838858 2.2852479687
178 1 16.3136999325 9.3678631062 -3.1372602085
179 1 15.8735710441 11.1224903845 -1.3297613450
180 1 15.4347692550 12.8767522842 0.4777418239
181 1 -2.7366308873 -12.1909104782 0.4790148836
182 1 17.6281461089 11.5594916691 -3.1372597265
183 1 17.1899840493 13.3129454311 -1.3297574322
184 1 18.9455157340 13.7495557289 -3.1372594523
185 1 0.0245049860 14.7006211648 2.2479911094
186 1 1.7941822581 -14.6957513599 0.4781497573
187 1 1.3528183338 -12.9827845003 2.2764818054
188 1 3.5699137442 -14.2759740955 -1.3312883884
189 1 3.1444189148 -12.5377147759 0.4772658051
190 1 2.6846559798 -10.8098995682 2.2876906353
191 1 5.3348956808 -13.8431517445 -3.1371006610
192 1 4.8941443901 -12.0984183016 -1.3327018812
193 1 4.4487022282 -10.3552731785 0.4784546469
194 1 3.9964975811 -8.6147608966 2.2856464973
195 1 6.6552542179 -11.6606033268 -3.1373901820
196 1 6.2121403737 -9.9156612575 -1.3299007548
197 1 5.7716330015 -8.1739225321 0.4780310245
198 1 5.3407708880 -6.4354917358 2.2852639458
199 1 7.9751510898 -9.4783256437 -3.1372909928
200 1 7.5376782817 -7.7341544302 -1.3297488920
201 1 7.1032940959 -5.9911403966 0.4769578066
202 1 6.6678604686 -4.2467160369 2.2852047711
203 1 9.3010796290 -7.2959687564 -3.1370807654
204 1 8.8660423911 -5.5500947031 -1.3297605471
205 1 8.4309423869 -3.8041670472 0.4780214329
206 1 7.9978904747 -2.0572167569 2.2852165213
207 1 10.6257613968 -5.1106416553 -3.1373809945
208 1 10.1909887253 -3.3631887071 -1.3297681730
209 1 9.7570820877 -1.6151104596 0.4778400669
210 1 9.3238580823 0.1347331751 2.2852285561
211 1 11.9488823967 -2.9228059424 -3.1372594459
212 1 11.5137023749 -1.1733183415 -1.3297683721
213 1 11.0784903080 0.5774598496 0.4777654564
214 1 10.6428853490 2.3303985847 2.2852292631
215 1 13.2682907287 -0.7316416053 -3.1372543253
216 1 12.8311164625 1.0203867722 -1.3297650189
217 1 12.3927638562 2.7742413829 0.4777447230
218 1 11.9524979704 4.5306466897 2.2852361591
219 1 14.5821337732 1.4632074478 -3.1372590218
220 1 14.1416114376 3.2179142973 -1.3297640802
221 1 13.6992651361 4.9743267490 0.4777397154
222 1 13.2553705045 6.7322594502 2.2852389909
223 1 15.8904801568 3.6606648349 -3.1372607645
224 1 15.4475252220 5.4166643128 -1.3297624056
225 1 15.0040918642 7.1731641108 0.4777397389
226 1 14.5612596981 8.9296456868 2.2852375396
227 1 17.1975505045 5.8575508067 -3.1372609882
228 1 16.7551656751 7.6128574034 -1.3297603792
229 1 16.3137089979 9.3678596369 0.4777398246
230 1 15.8735738608 11.1224870911 2.2852426350
231 1 18.5077808009 8.0517060340 -3.1372604273
232 1 18.0674101765 9.8057679940 -1.3297607896
233 1 17.6281402709 11.5594936862 0.4777406147
234 1 17.1899797727 13.3129477091 2.2852394767
235 1 19.8218292488 10.2434660083 -3.1372601261
236 1 19.3832133630 11.9966274352 -1.3297592516
237 1 18.9455190431 13.7495548949 0.4777407233
238 1 21.1385039427 12.4338715309 -3.1372599158
239 1 20.7011267507 14.1865075358 -1.3297600089
240 2 -2.2768235963 -13.8784453122 -1.2641343112
241 1 3.5693873357 -14.2753386616 2.2868288911
242 1 5.3376016743 -13.8447293310 0.4776260767
243 1 4.8949905227 -12.0994783276 2.2882315511
244 1 7.5358059756 14.6503189110 -3.1372125055
245 1 7.0955831530 -13.4093511901 -1.3300310143
246 1 6.6528164625 -11.6611715078 0.4779086422
247 1 6.2104943835 -9.9144786203 2.2854240043
248 1 8.8534163853 -12.9753580592 -3.1372799390
249 1 8.4136496444 -11.2255678771 -1.3294163655
250 1 7.9747032907 -9.4786415555 0.4777934924
251 1 7.5394151309 -7.7346278327 2.2852402010
252 1 10.1728262887 -10.7911979058 -3.1372612687
253 1 9.7363901418 -9.0427094623 -1.3296820340
254 1 9.3009857463 -7.2960632116 0.4775650837
255 1 8.8651471363 -5.5500700521 2.2852338637
256 1 11.4961355662 -8.6071867900 -3.1372151304
257 1 11.0610705940 -6.8585236622 -1.3297463600
258 1 10.6257425105 -5.1106705036 0.4778549902
259 1 10.1910537809 -3.3631708577 2.2852349367
260 1 12.8190411631 -6.4213439659 -3.1372976812
261 1 12.3839320899 -4.6719409799 -1.3297601961
262 1 11.9488746858 -2.9228136712 0.4777298670
263 1 11.5137718609 -1.1732850320 2.2852355239
264 1 14.1403737951 -4.2333442482 -3.1372514617
265 1 13.7046258199 -2.4826813552 -1.3297630768
266 1 13.2682900056 -0.7316462654 0.4777250944
267 1 12.8311468926 1.0204053617 2.2852348054
268 1 15.4585776815 -2.0425702815 -3.1372605446
269 1 15.0210059043 -0.2901224746 -1.3297629207
270 1 14.5821300849 1.4632084705 0.4777316644
271 1 14.1416225143 3.2179226050 2.2852369959
272 1 16.7723657759 0.1511784831 -3.1372629105
273 1 16.3321906303 1.9054859205 -1.3297626658
274 1 15.8904831748 3.6606623640 0.4777356734
275 1 15.4475295601 5.4166670333 2.2852382278
276 1 18.0821128524 2.3469301591 -3.1372624215
277 1 17.6401195433 4.1021523019 -1.3297618584
278 1 17.1975468844 5.8575524021 0.4777379993
279 1 16.7551662386 7.6128592317 2.2852385273
280 1 19.3908197138 4.5424451224 -3.1372616300
281 1 18.9490616877 6.2972504570 -1.3297609236
282 1 18.5077836501 8.0517047881 0.4777390740
283 1 18.0674117028 9.8057676056 2.2852405005
284 1 20.7016640901 6.7361004108 -3.1372609177
285 1 20.2613487684 8.4899849146 -1.3297607227
286 1 19.8218272546 10.2434666769 0.4777398179
287 1 19.3832122292 11.9966283570 2.2852397577
288 1 22.0154790971 8.9279010672 -3.1372604998
289 1 21.5766232372 10.6810343320 -1.3297600272
290 1 21.1385050739 12.4338712041 0.4777400890
291 1 20.7011280278 14.1865069708 2.2852406796
292 1 23.3315713161 11.1185500408 -3.1372602546
293 1 22.8938082625 12.8712346457 -1.3297601610
294 1 -2.9936367231 -10.3669270366 2.2728087199
295 1 24.6489762777 13.3087394778 -3.1372601462
296 1 7.5365217559 14.6499069206 0.4777151417
297 1 7.0958907070 -13.4096624521 2.2855424382
298 1 9.2926334285 -14.7273716717 -1.3298032670
299 1 8.8528030085 -12.9752993300 0.4777818451
300 1 8.4131853642 -11.2252385059 2.2849201174
301 1 11.0484884600 -14.2942518006 -3.1372604316
302 1 10.6103590820 -12.5417404116 -1.3296718370
303 1 10.1729949955 -10.7911657816 0.4777561040
304 1 9.7368716080 -9.0428870685 2.2851739974
305 1 12.3674928752 -12.1080204682 -3.1372577631
306 1 11.9315071935 -10.3568916346 -1.3297769554
307 1 11.4962033560 -8.6071546002 0.4777012930
308 1 11.0607637477 -6.8584816597 2.2852273200
309 1 13.6891764400 -9.9221334987 -3.1372471032
310 1 13.2541519347 -8.1713659750 -1.3297689572
311 1 12.8190619641 -6.4213306873 0.4777770305
312 1 12.3840127207 -4.6719367903 2.2852350666
313 1 15.0108241561 -7.7351427057 -3.1372703942
314 1 14.5756954685 -5.9840728435 -1.3297637486
315 1 14.1403787160 -4.2333390763 0.4777271618
316 1 13.7046375547 -2.4826783148 2.2852359510
317 1 16.3310611609 -5.5464380605 -3.1372557443
318 1 15.8951723507 -3.7945700563 -1.3297626102
319 1 15.4585798567 -2.0425691946 0.4777351349
320 1 15.0210028186 -0.2901238511 2.2852361648
321 1 17.6486270142 -3.3555137874 -3.1372618668
322 1 17.2110958737 -1.6024121981 -1.3297622443
323 1 16.7723654298 0.1511796875 0.4777378803
324 1 16.3321875799 1.9054844181 2.2852372979
325 1 18.9626415349 -1.1622736538 -3.1372620182
326 1 18.5230156037 0.5920939870 -1.3297620001
327 1 18.0821140980 2.3469296954 0.4777384423
328 1 17.6401182112 4.1021512440 2.2852381482
329 1 20.2735675671 1.0324762715 -3.1372615331
330 1 19.8324929212 2.7874493215 -1.3297615403
331 1 19.3908186954 4.5424457551 0.4777388649
332 1 18.9490608361 6.2972502463 2.2852387219
333 1 21.5835995422 3.2271277529 -3.1372611583
334 1 21.1425348368 4.9817896826 -1.3297610269
335 1 20.7016650461 6.7361000382 0.4777392245
336 1 20.2613488900 8.4899844907 2.2852396544
337 1 22.8950744952 5.4204595335 -3.1372608248
338 1 22.4550078488 7.1743896407 -1.3297607483
339 1 22.0154784476 8.9279013142 0.4777395816
340 1 21.5766227577 10.6810345084 2.2852396451
341 1 24.2088309762 7.6123362172 -3.1372605797
342 1 23.7699212606 9.3656093527 -1.3297603738
343 1 23.3315717123 11.1185499268 0.4777397792
344 1 22.8938086219 12.8712344251 2.2852400595
345 1 25.5245031609 9.8032294786 -3.1372604106
346 1 25.0865153167 11.5560859544 -1.3297603213
347 1 24.6489760848 13.3087395217 0.4777398264
348 1 26.8413450155 11.9937009409 -3.1372603195
349 1 26.4039134473 13.7464052999 -1.3297602237
350 1 28.1585690038 14.1842420977 -3.1372603147
351 1 9.2927378097 -14.7274623195 2.2853003369
352 1 11.0483186790 -14.2942093490 0.4777527142
353 1 10.6102207748 -12.5416466136 2.2851664088
354 1 12.8042950524 -13.8605721366 -1.3297368580
355 1 12.3675749241 -12.1080200173 0.4777472399
356 1 11.9316462656 -10.3569507008 2.2852658393
357 1 14.5603943839 -13.4262276475 -3.1372579529
358 1 14.1244834801 -11.6737382778 -1.3297681409
359 1 13.6891754016 -9.9221336359 0.4777322383
360 1 13.2540534269 -8.1713441169 2.2852518914
361 1 15.8810204417 -11.2386595664 -3.1372555099
362 1 15.4458694864 -9.4866710330 -1.3297588412
363 1 15.0108183757 -7.7351452995 0.4777514939
364 1 14.5757346143 -5.9840746007 2.2852423758
365 1 17.2017542790 -9.0504681047 -3.1372624685
366 1 16.7664990264 -7.2983719288 -1.3297590933
367 1 16.3310581759 -5.5464394743 0.4777340957
368 1 15.8951689875 -3.7945701941 2.2852390244
369 1 18.5212671050 -6.8609732727 -3.1372583827
370 1 18.0852554046 -5.1083223431 -1.3297604319
371 1 17.6486262590 -3.3555146305 0.4777388719
372 1 17.2110935755 -1.6024127579 2.2852380647
373 1 19.8385015908 -4.6697375034 -3.1372612926
374 1 19.4010659802 -2.9161946022 -1.3297610973
375 1 18.9626409464 -1.1622737070 0.4777387317
376 1 18.5230152583 0.5920939143 2.2852381864
377 1 21.1528513521 -2.4767213198 -3.1372611381
378 1 20.7137192758 -0.7222862104 -1.3297612799
379 1 20.2735677968 1.0324759690 0.4777385806
380 1 19.8324931206 2.7874493500 2.2852385280
381 1 22.4647712291 -0.2825712828 -3.1372610489
382 1 22.0244566171 1.4722755023 -1.3297611601
383 1 21.5835991645 3.2271278993 0.4777388154
384 1 21.1425348951 4.9817898282 2.2852388998
385 1 23.7758986717 1.9115359202 -3.1372609444
386 1 23.3354629004 3.6661397537 -1.3297609239
387 1 22.8950747797 5.4204593890 0.4777391226
388 1 22.4550080318 7.1743896086 2.2852393755
389 1 25.0879882720 4.1046735399 -3.1372607810
390 1 24.6482278999 5.8586885791 -1.3297607276
391 1 24.2088307536 7.6123362942 0.4777394032
392 1 23.7699211662 9.3656094512 2.2852395246
393 1 26.4018115834 6.2966553937 -3.1372606229
394 1 25.9629448854 8.0500996358 -1.3297605130
395 1 25.5245032940 9.8032294345 0.4777395837
396 1 25.0865154510 11.5560859012 2.2852397525
397 1 27.7172101749 8.4877952873 -3.1372604985
398 1 27.2791006408 10.2408523092 -1.3297604265
399 1 26.8413449449 11.9937009576 0.4777396667
400 1 26.4039133513 13.7464053463 2.2852397347
401 1 29.0336253096 10.6785418822 -3.1372604208
402 1 28.5959900237 12.4314353041 -1.3297603547
403 1 28.1585690324 14.1842420926 0.4777396973
404 1 30.3504116898 12.8693107407 -3.1372603931
405 1 -3.8504512598 -14.3235487598 -3.1365488184
406 1 12.8042524835 -13.8605451779 2.2852253396
407 1 14.9971251843 14.6305904580 -1.3297526657
408 1 14.5604233071 -13.4262311614 0.4777435987
409 1 14.1245249700 -11.6737574017 2.2852540964
410 1 16.7528351700 -14.7439535438 -3.1372587110
411 1 16.3165798453 -12.9911010261 -1.3297618284
412 1 15.8810136565 -11.2386601211 0.4777390898
413 1 15.4458383950 -9.4866622410 2.2852416200
414 1 18.0725975217 -12.5551871208 -3.1372581850
415 1 17.6370390828 -10.8027464684 -1.3297581053
416 1 17.2017527553 -9.0504685533 0.4777437734
417 1 16.7665143254 -7.2983738227 2.2852391527
418 1 19.3925429404 -10.3660714616 -3.1372604166
419 1 18.9569418522 -8.6135444239 -1.3297595353
420 1 18.5212671892 -6.8609731756 0.4777378604
421 1 18.0852518373 -5.1083223424 2.2852387288
422 1 20.7114693789 -8.1759591305 -3.1372594631
423 1 20.2752138007 -6.4229734318 -1.3297604352
424 1 19.8385019179 -4.6697374387 0.4777396390
425 1 19.4010656153 -2.9161946688 2.2852385797
426 1 22.0284807250 -5.9844735340 -3.1372607373
427 1 21.5910442631 -4.2307833595 -1.3297608148
428 1 21.1528513884 -2.4767211817 0.4777389995
429 1 20.7137194598 -0.7222861538 2.2852386452
430 1 23.3431443200 -3.7916066935 -3.1372607108
431 1 22.9043478593 -2.0372385161 -1.3297609428
432 1 22.4647713834 -0.2825713147 0.4777388900
433 1 22.0244567210 1.4722755159 2.2852388168
434 1 24.6558639485 -1.5978733534 -3.1372607912
435 1 24.2161047836 0.1568074511 -1.3297609145
436 1 23.7758985815 1.9115359921 0.4777390306
437 1 23.3354628854 3.6661397795 2.2852390408
438 1 25.9678775098 0.5958484000 -3.1372607813
439 1 25.5279387006 2.3503553671 -1.3297608053
440 1 25.0879883734 4.1046735018 0.4777392111
441 1 24.6482279282 5.8586885508 2.2852393044
442 1 27.2805220505 2.7888458623 -3.1372607027
443 1 26.8410383159 4.5428920801 -1.3297606855
444 1 26.4018115141 6.2966554236 0.4777393803
445 1 25.9629448392 8.0500996561 2.2852394529
446 1 28.5944754562 4.9809223372 -3.1372606095
447 1 28.1556768044 6.7344895845 -1.3297605589
448 1 27.7172102217 8.4877952729 0.4777395045
449 1 27.2791006758 10.2408522869 2.2852395971
450 1 29.9097048269 7.1722825998 -3.1372605280
451 1 29.4715216459 8.9255041615 -1.3297604835
452 1 29.0336252849 10.6785418892 0.4777395772
453 1 28.5959899898 12.4314353171 2.2852396308
454 1 31.2258013527 9.3632794638 -3.1372604706
455 1 30.7880180528 11.1163380588 -1.3297604287
456 1 30.3504117011 12.8693107386 0.4777396114
457 1 -4.5459231454 -12.4279426054 2.4046155051
458 1 32.5422440305 11.5542603408 -3.1372604410
459 1 32.1045964323 13.3073324027 -1.3297604149
460 1 33.8585506327 13.7454918578 -3.1372604306
461 1 14.9971122955 14.6305989739 2.2852372150
462 1 16.7528448676 -14.7439555753 0.4777417240
463 1 16.3165926245 -12.9911069765 2.2852454240
464 1 18.5086860493 -14.3077802601 -1.3297601701
465 1 18.0725939836 -12.5551870252 0.4777403323
466 1 17.6370293100 -10.8027432075 2.2852400987
467 1 20.2644349233 -13.8710534436 -3.1372592873
468 1 19.8283018394 -12.1185674718 -1.3297589681
469 1 19.3925431218 -10.3660714631 0.4777413599
470 1 18.9569473365 -8.6135454332 2.2852399222
471 1 21.5836110927 -11.6813537625 -3.1372600349
472 1 21.1475254030 -9.9287383686 -1.3297598859
473 1 20.7114695944 -8.1759590579 0.4777392827
474 1 20.2752119444 -6.4229733077 2.2852395976
475 1 22.9019799268 -9.4908597738 -3.1372598993
476 1 22.4653843584 -7.7378183448 -1.3297603015
477 1 22.0284807990 -5.9844735356 0.4777397390
478 1 21.5910444277 -4.2307833562 2.2852392535
479 1 24.2187749698 -7.2992567217 -3.1372604641
480 1 23.7812375507 -5.5456161275 -1.3297605432
481 1 23.3431442821 -3.7916066767 0.4777392527
482 1 22.9043479508 -2.0372384969 2.2852391006
483 1 25.5336688950 -5.1065559912 -3.1372605263
484 1 25.0950574897 -3.3523602760 -1.3297606795
485 1 24.6558639706 -1.5978733801 0.4777391776
486 1 24.2161047901 0.1568074465 2.2852391019
487 1 26.8469978234 -2.9131695694 -3.1372606338
488 1 26.4076124244 -1.1587059435 -1.3297607183
489 1 25.9678774696 0.5958484150 0.4777392190
490 1 25.5279386827 2.3503553710 2.2852391924
491 1 28.1597044405 -0.7197660278 -3.1372606560
492 1 27.7201273967 1.0345920458 -1.3297606892
493 1 27.2805220784 2.7888458463 0.4777392992
494 1 26.8410383235 4.5428920709 2.2852393269
495 1 29.4728178333 1.4730979028 -3.1372606274
496 1 29.0335508082 3.2271100353 -1.3297606307
497 1 28.5944754318 4.9809223458 0.4777393921
498 1 28.1556767913 6.7344895919 2.2852394314
499 1 30.7869174260 3.6652322591 -3.1372605799
500 1 30.3481775670 5.4188579706 -1.3297605603
501 1 29.9097048421 7.1722825942 0.4777394725
502 1 29.4715216584 8.9255041552 2.2852395246
503 1 32.1020418274 5.8567657270 -3.1372605314
504 1 31.6638020768 7.6100966402 -1.3297605070
505 1 31.2258013437 9.3632794662 0.4777395284
506 1 30.7880180428 11.1163380637 2.2852395665
507 1 33.4178971520 8.0479712806 -3.1372604925
508 1 32.9799947080 9.8011520571 -1.3297604671
509 1 32.5422440347 11.5542603398 0.4777395602
510 1 32.1045964400 13.3073324000 2.2852395876
511 1 34.7340674039 10.2391353245 -3.1372604679
512 1 34.2962885663 11.9923120226 -1.3297604493
513 1 33.8585506311 13.7454918580 0.4777395681
514 1 36.0501535474 12.4304842454 -3.1372604559
515 1 35.6122960962 14.1837706038 -1.3297604444
516 1 -6.1954336949 -14.7983756027 -3.1362756022
517 1 18.5086899282 -14.3077822614 2.2852420331
518 1 20.2644335024 -13.8710532750 0.4777403099
519 1 19.8282987193 -12.1185663707 2.2852401076
520 1 22.4566140388 14.6237594634 -3.1372598268
521 1 22.0199207991 -13.4338582594 -1.3297596160
522 1 21.5836113914 -11.6813537588 0.4777404810
523 1 21.1475272774 -9.9287388219 2.2852401392
524 1 23.7750494585 -12.9962730640 -3.1372600780
525 1 23.3384755333 -11.2436540393 -1.3297600513
526 1 22.9019799716 -9.4908597610 0.4777397026
527 1 22.4653835695 -7.7378182511 2.2852397745
528 1 25.0928784592 -10.8055666024 -3.1372601103
529 1 24.6559309438 -9.0525554645 -1.3297602529
530 1 24.2187749628 -7.2992567315 0.4777397289
531 1 23.7812377158 -5.5456161325 2.2852394722
532 1 26.4094422458 -8.6139462773 -3.1372603719
533 1 25.9717606016 -6.8604168802 -1.3297604260
534 1 25.5336688759 -5.1065559878 0.4777394315
535 1 25.0950575027 -3.3523602734 2.2852393198
536 1 27.7244780291 -6.4214327944 -3.1372604514
537 1 27.2859561120 -4.6674336795 -1.3297605451
538 1 26.8469978323 -2.9131695768 0.4777393607
539 1 26.4076124164 -1.1587059468 2.2852392787
540 1 29.0382531440 -4.2283570897 -3.1372605403
541 1 28.5991144169 -2.4741159551 -1.3297606001
542 1 28.1597044301 -0.7197660216 0.4777393474
543 1 27.7201273912 1.0345920473 2.2852393068
544 1 30.3514882569 -2.0352366523 -3.1372605718
545 1 29.9121688764 -0.2810451259 -1.3297606054
546 1 29.4728178436 1.4730978985 0.4777393732
547 1 29.0335508120 3.2271100329 2.2852393718
548 1 31.6649808105 0.1574876451 -3.1372605697
549 1 31.2258758969 1.9114283179 -1.3297605823
550 1 30.7869174186 3.6652322625 0.4777394201
551 1 30.3481775635 5.4188579732 2.2852394362
552 1 32.9792174948 2.3496400322 -3.1372605498
553 1 32.5405210276 4.1032780259 -1.3297605458
554 1 32.1020418328 5.8567657252 0.4777394685
555 1 31.6638020809 7.6100966382 2.2852394955
556 1 34.2942740662 4.5412963073 -3.1372605235
557 1 33.8559849405 6.2946913942 -1.3297605121
558 1 33.4178971490 8.0479712816 0.4777395072
559 1 32.9799947047 9.8011520587 2.2852395312
560 1 35.6099423867 6.7326644610 -3.1372604991
561 1 35.1719386555 8.4859286146 -1.3297604849
562 1 34.7340674055 10.2391353242 0.4777395324
563 1 34.2962885687 11.9923120216 2.2852395516
564 1 36.9258930846 8.9239774204 -3.1372604812
565 1 36.4880025799 10.6772294704 -1.3297604690
566 1 36.0501535468 12.4304842456 0.4777395437
567 1 35.6122960946 14.1837706043 2.2852395552
568 1 38.2417979641 11.1154252835 -3.1372604705
569 1 37.8038538554 12.8687598598 -1.3297604619
570 2 -6.8238444791 -12.5393249318 -3.1386036915
571 1 39.5574135993 13.3071170192 -3.1372604667
572 1 22.4566135048 14.6237595561 0.4777400436
573 1 22.0199198280 -13.4338578602 2.2852400346
574 1 24.2118461904 -14.7488040684 -1.3297599986
575 1 23.7750496216 -12.9962730749 0.4777400684
576 1 23.3384761707 -11.2436542091 2.2852400247
577 1 25.9667501885 -14.3110376401 -3.1372602062
578 1 25.5297740630 -12.5583646344 -1.3297601758
579 1 25.0928784483 -10.8055666017 0.4777397641
580 1 24.6559306428 -9.0525554108 2.2852397652
581 1 27.2840876778 -12.1201922788 -3.1372602408
582 1 26.8468420076 -10.3671834572 -1.3297602796
583 1 26.4094422388 -8.6139462810 0.4777396979
584 1 25.9717606930 -6.8604168865 2.2852395690
585 1 28.6004235332 -9.9285914346 -3.1372603638
586 1 28.1626078818 -8.1751462783 -1.3297603943
587 1 27.7244780252 -6.4214327925 0.4777395256
588 1 27.2859561043 -4.6674336789 2.2852394522
589 1 29.9155379017 -7.7362557295 -3.1372604277
590 1 29.4770639595 -5.9824164163 -1.3297604810
591 1 29.0382531483 -4.2283570916 0.4777394613
592 1 28.5991144134 -2.4741159560 2.2852393994
593 1 31.2296367363 -5.5434495381 -3.1372604908
594 1 30.7906706027 -3.7893944383 -1.3297605305
595 1 30.3514882539 -2.0352366502 0.4777394296
596 1 29.9121688758 -0.2810451252 2.2852393941
597 1 32.5432725720 -3.3505772406 -3.1372605211
598 1 32.1041438276 -1.5965345859 -1.3297605480
599 1 31.6649808137 0.1574876436 0.4777394301
600 1 31.2258758985 1.9114283172 2.2852394188
601 1 33.8570666919 -1.1579909108 -3.1372605302
602 1 33.4180869477 0.5958726483 -1.3297605439
603 1 32.9792174923 2.3496400333 0.4777394501
604 1 32.5405210264 4.1032780267 2.2852394533
605 1 35.1714235361 1.0341513589 -3.1372605249
606 1 34.7327612388 2.7877809461 -1.3297605275
607 1 34.2942740679 4.5412963066 0.4777394765
608 1 33.8559849417 6.2946913936 2.2852394887
609 1 36.4864351169 3.2258894773 -3.1372605123
610 1 36.0481045555 4.9793223219 -1.3297605084
611 1 35.6099423856 6.7326644614 0.4777395008
612 1 35.1719386544 8.4859286151 2.2852395146
613 1 37.8019563189 5.4173799419 -3.1372604982
614 1 37.3638671769 7.1707017145 -1.3297604911
615 1 36.9258930852 8.9239774203 0.4777395190
616 1 36.4880025807 10.6772294700 2.2852395313
617 1 39.1177281699 7.6088101090 -3.1372604864
618 1 38.6797425378 9.3621165996 -1.3297604791
619 1 38.2417979639 11.1154252835 0.4777395294
620 1 37.8038538549 12.8687598600 2.2852395380
621 1 40.4334821693 9.8003380791 -3.1372604782
622 1 39.9954628057 11.5537074424 -1.3297604724
623 1 39.5574135994 13.3071170192 0.4777395334
624 1 41.7490145968 11.9920574008 -3.1372604741
625 1 41.3108622443 13.7455323568 -1.3297604703
626 1 43.0642309295 14.1839835706 -3.1372604730
627 1 24.2118458665 -14.7488039490 2.2852398789
628 1 25.9667502607 -14.3110376484 0.4777398405
629 1 25.5297742704 -12.5583647025 2.2852398655