LAMMPS data file via write_data, version 29 Aug 2024, timestep = 934, units = metal

3656 atoms
2 atom types

-100.1 100.1 xlo xhi
-14.90504265 14.90504265 ylo yhi
-3.615 3.615 zlo zhi
0 0 0 xy xz yz

Masses

1 63.55
2 63.55

Atoms # atomic

1 1 0.6644219619331437 13.393001272605117 -3.1602571101555763 0 0 0
2 2 -0.8779025745900242 -13.035863790608582 -3.160257111561598 0 0 1
3 1 0.2897222478735415 7.734924813580131 -3.1602571091518787 0 0 0
4 1 1.355226083547052 9.893890646373725 -3.1602571087645255 0 0 0
5 1 1.0007377174101038 11.516562997775052 -1.3527571092383683 0 0 0
6 1 0.664421961937876 13.393001272606208 0.4547428898477959 0 0 0
7 2 -2.0455273984729274 -14.622639156690699 2.2622428860557475 0 0 0
8 1 2.774810244802211 12.028185399288168 -3.16025710801238 0 0 0
9 1 2.360216116094975 13.779120994479866 -1.352757108539958 0 0 0
10 1 4.068619642912196 14.252268888989933 -3.1602571073485253 0 0 0
11 1 1.0007377173563299 4.064041672720945 -3.160257109245916 0 0 0
12 1 0.6644219618994214 5.940479947511294 -1.352757110166108 0 0 0
13 1 0.2897222477414516 7.734924813546906 0.4547428908399415 0 0 0
14 1 2.3602161160501254 6.326599669433536 -3.160257108521186 0 0 0
15 1 1.8936065253295595 8.176118215370598 -1.3527571086695973 0 0 0
16 1 1.3552260835588754 9.893890646431123 0.454742891205219 0 0 0
17 1 1.0007377173813126 11.516562997759968 2.2622428907439396 0 0 0
18 1 3.617002606393015 8.563405760442615 -3.160257107548305 0 0 0
19 1 3.2083678783767766 10.307655201694706 -1.352757107611592 0 0 0
20 1 2.7748102447906575 12.028185399282853 0.4547428919802535 0 0 0
21 1 2.360216116084004 13.77912099448786 2.262242891454443 0 0 0
22 1 4.967175650656031 10.735600418227959 -3.160257106528248 0 0 0
23 1 4.5326378991763505 12.488184562202127 -1.3527571068792243 0 0 0
24 1 4.068619642912779 14.252268888993461 0.4547428926516911 0 0 0
25 1 6.270616192404603 12.936019564685564 -3.160257105778001 0 0 0
26 1 5.8211715453539625 14.691149343085337 -1.352757106103767 0 0 0
27 2 -3.6494116768497804 -14.181445753773122 -3.1602571144261797 0 0 1
28 1 0.6644219618834057 -1.5120413775015944 -3.1602571101625805 0 0 0
29 1 0.2897222477142094 0.28240348853263697 -1.3527571091618826 0 0 0
30 1 1.89360652537259 0.723596890381021 -3.1602571086432 0 0 0
31 1 1.3552260835905514 2.4413693213669934 -1.352757108779213 0 0 0
32 1 1.000737717367869 4.064041672711875 0.45474289076271296 0 0 0
33 1 0.6644219618722644 5.940479947505439 2.262242889844447 0 0 0
34 1 3.2083678784112237 2.8551338766668852 -3.1602571076127366 0 0 0
35 1 2.774810244793386 4.575664074259725 -1.3527571080126206 0 0 0
36 1 2.3602161160714417 6.326599669415087 0.45474289145891356 0 0 0
37 1 1.8936065253290053 8.176118215401443 2.262242891388789 0 0 0
38 1 4.532637899187165 5.035663237210391 -3.1602571068703926 0 0 0
39 1 4.068619642881302 6.79974756396688 -1.3527571073404334 0 0 0
40 1 3.617002606409116 8.563405760444303 0.4547428924624887 0 0 0
41 1 3.2083678783798035 10.307655201682747 2.262242892387812 0 0 0
42 1 5.821171545330273 7.238628018105112 -3.1602571060947655 0 0 0
43 1 5.388984210126736 8.98546414721273 -1.3527571063340598 0 0 0
44 1 4.967175650656316 10.735600418224339 0.4547428934714259 0 0 0
45 1 4.532637899188018 12.488184562202845 2.2622428931252663 0 0 0
46 1 7.150395377124909 9.42205771446149 -3.1602571052265347 0 0 0
47 1 6.71586201653831 11.175730962482595 -1.3527571054426264 0 0 0
48 1 6.27061619240861 12.93601956468555 0.45474289422469705 0 0 0
49 1 5.821171545355611 14.691149343081326 2.262242893898326 0 0 0
50 1 8.462892955287941 11.617770392496267 -3.1602571043961767 0 0 0
51 1 8.020453203664474 13.373352619755883 -1.3527571047420432 0 0 0
52 2 -0.8779025762245851 -9.355139784471149 -3.1602571115279714 0 0 1
53 1 9.776097837466736 13.809627231155323 -3.160257103697321 0 0 0
54 1 0.28972224791206713 -7.170117836336996 -3.1602571091693656 0 0 0
55 1 1.3552260836199395 -5.011152003610327 -3.160257108777774 0 0 0
56 1 1.0007377173845242 -3.388479652214704 -1.352757109261016 0 0 0
57 1 0.6644219618838179 -1.5120413775003314 0.45474288985051137 0 0 0
58 1 0.28972224773707467 0.2824034885188613 2.262242890836647 0 0 0
59 1 2.7748102448546064 -2.8768572506947336 -3.1602571080265096 0 0 0
60 1 2.360216116113321 -1.125921655553137 -1.3527571085426409 0 0 0
61 1 1.8936065253733432 0.7235968903807404 0.454742891362288 0 0 0
62 1 1.3552260835880219 2.4413693213688408 2.262242891216768 0 0 0
63 1 4.0686196429328305 -0.6527737609888327 -3.160257107346808 0 0 0
64 1 3.617002606443009 1.1108844354599707 -1.352757107548385 0 0 0
65 1 3.208367878407472 2.855133876668459 0.45474289239442856 0 0 0
66 1 2.7748102447984593 4.575664074241837 2.2622428919795374 0 0 0
67 1 5.388984210177412 1.5329428222669552 -3.160257106337758 0 0 0
68 1 4.967175650690905 3.283079093259767 -1.3527571065297372 0 0 0
69 1 4.532637899178525 5.03566323721479 0.45474289312970334 0 0 0
70 1 4.068619642880435 6.799747563976178 2.262242892653389 0 0 0
71 1 6.715862016564785 3.72320963756175 -3.1602571054409596 0 0 0
72 1 6.270616192406962 5.483498239739694 -1.3527571057732546 0 0 0
73 1 5.821171545327445 7.238628018107226 0.4547428939099217 0 0 0
74 1 5.388984210121109 8.98546414721167 2.2622428936620067 0 0 0
75 1 8.020453203675345 5.920831294852521 -3.160257104738313 0 0 0
76 1 7.582969154514515 7.67256663291383 -1.3527571049968607 0 0 0
77 1 7.150395377123061 9.422057714462307 0.45474289477036095 0 0 0
78 1 6.715862016538736 11.175730962486272 2.2622428945564574 0 0 0
79 1 9.340232721196614 8.109189638677927 -3.1602571039403564 0 0 0
80 1 8.903671157362794 9.862234364466941 -1.3527571041482551 0 0 0
81 1 8.462892955286847 11.617770392496963 0.4547428956033377 0 0 0
82 1 8.020453203663166 13.373352619755591 2.2622428952573315 0 0 0
83 1 10.65480419495185 10.302150883906462 -3.1602571031258457 0 0 0
84 1 10.214580613931375 12.05654274820136 -1.3527571033966856 0 0 0
85 1 9.776097837465585 13.809627231156268 0.4547428963015844 0 0 0
86 1 11.968700698769624 12.494244521245841 -3.160257102412655 0 0 0
87 1 11.53123424771573 14.247148617933705 -1.3527571026876377 0 0 0
88 1 13.284943799445998 14.685569451456976 -3.1602571017127037 0 0 0
89 1 1.0007377174572412 -10.841000977220038 -3.1602571092445837 0 0 0
90 1 0.6644219619747957 -8.964562702404324 -1.352757110180127 0 0 0
91 1 0.2897222479807908 -7.170117836303076 0.4547428908280103 0 0 0
92 1 2.360216116095401 -8.578442980486367 -3.160257108543686 0 0 0
93 1 1.8936065253602834 -6.728924434588681 -1.35275710864152 0 0 0
94 1 1.3552260836058139 -5.0111520036514765 0.45474289119572475 0 0 0
95 1 1.0007377173744487 -3.3884796522419816 2.262242890751819 0 0 0
96 1 3.6170026065020835 -6.3416368894862405 -3.1602571075576424 0 0 0
97 1 3.2083678784747462 -4.597387448266888 -1.352757107624765 0 0 0
98 1 2.7748102448604897 -2.8768572506875802 0.454742891978547 0 0 0
99 1 2.360216116104226 -1.1259216555573932 2.262242891458442 0 0 0
100 1 4.967175650731264 -4.169442231702792 -3.160257106540029 0 0 0
101 1 4.5326378992308065 -2.416858087734605 -1.3527571068796669 0 0 0
102 1 4.068619642930329 -0.6527737609911526 0.45474289265058176 0 0 0
103 1 3.6170026064424263 1.1108844354617577 2.2622428924523734 0 0 0
104 1 6.270616192464146 -1.9690230852125925 -3.1602571057795044 0 0 0
105 1 5.8211715453921045 -0.21389330684118235 -1.3527571060995955 0 0 0
106 1 5.3889842101772985 1.5329428222671364 0.45474289366298737 0 0 0
107 1 4.967175650685462 3.2830790932587295 2.2622428934708876 0 0 0
108 1 7.582969154555826 0.2200453079730771 -3.160257105002272 0 0 0
109 1 7.150395377164543 1.9695363895422933 -1.352757105229249 0 0 0
110 1 6.715862016566092 3.723209637559483 0.4547428945578155 0 0 0
111 1 6.270616192406649 5.483498239743517 2.2622428942289825 0 0 0
112 1 8.903671157385645 2.4097130395633197 -3.160257104150754 0 0 0
113 1 8.462892955309371 4.1652490676028275 -1.3527571043920743 0 0 0
114 1 8.020453203677235 5.9208312948515935 0.45474289526337547 0 0 0
115 1 7.582969154515581 7.67256663291157 2.262242895004506 0 0 0
116 1 10.214580613943838 4.604021423314284 -3.160257103394748 0 0 0
117 1 9.77609783748835 6.357105906270428 -1.3527571036903285 0 0 0
118 1 9.340232721197438 8.109189638678457 0.4547428960598539 0 0 0
119 1 8.903671157365224 9.862234364468028 2.262242895852571 0 0 0
120 1 11.531234247748003 6.794627293045723 -3.160257102682841 0 0 0
121 1 11.09384964283926 8.547874950011119 -1.3527571028642131 0 0 0
122 1 10.654804194952618 10.302150883905723 0.45474289687497244 0 0 0
123 1 10.214580613931574 12.056542748200462 2.2622428966043855 0 0 0
124 1 12.846432168829935 8.986824476603557 -3.1602571019551817 0 0 0
125 1 12.407324142476725 10.740781822310813 -1.352757102179836 0 0 0
126 1 11.968700698771201 12.494244521245845 0.4547428975871273 0 0 0
127 1 11.531234247715773 14.247148617933169 2.262242897312429 0 0 0
128 1 14.160906088692457 11.178911528544559 -3.160257101276813 0 0 0
129 1 13.722852905107075 12.932212315165467 -1.3527571014601902 0 0 0
130 1 13.284943799446594 14.685569451456443 0.45474289828774034 0 0 0
131 1 15.476469313493297 13.370545477286937 -3.160257100455259 0 0 0
132 2 -0.8779025765888235 -11.182222301136186 2.262242888430803 0 0 0
133 1 0.28972224776650535 -14.622639161364237 -1.3527571091685415 0 0 0
134 1 1.8936065253852377 -14.18144575955086 -3.1602571086693145 0 0 0
135 1 1.3552260836320897 -12.463673328500793 -1.3527571087984278 0 0 0
136 1 1.000737717434376 -10.841000977198359 0.45474289074034757 0 0 0
137 1 0.6644219619846439 -8.964562702396718 2.2622428898253903 0 0 0
138 1 3.208367878433137 -12.049908773253302 -3.1602571076199863 0 0 0
139 1 2.7748102448424845 -10.329378575673633 -1.3527571080370606 0 0 0
140 1 2.360216116094932 -8.578442980479053 0.45474289145410385 0 0 0
141 1 1.8936065253482042 -6.728924434571766 2.2622428913263692 0 0 0
142 1 4.5326378992491385 -9.869379412746182 -3.1602571068887975 0 0 0
143 1 4.068619642976856 -8.105295085963863 -1.3527571073599034 0 0 0
144 1 3.617002606494353 -6.341636889490557 0.4547428924423476 0 0 0
145 1 3.208367878471904 -4.597387448264167 2.262242892378367 0 0 0
146 1 5.821171545400418 -7.666414631855134 -3.1602571061092615 0 0 0
147 1 5.38898421020339 -5.919578502719547 -1.352757106351507 0 0 0
148 1 4.967175650733708 -4.169442231699991 0.454742893461202 0 0 0
149 1 4.532637899235937 -2.4168580877376993 2.262242893117653 0 0 0
150 1 7.150395377179635 -5.482984935479374 -3.1602571052414428 0 0 0
151 1 6.715862016602614 -3.729311687424083 -1.35275710545118 0 0 0
152 1 6.270616192462882 -1.9690230852141024 0.4547428942188655 0 0 0
153 1 5.821171545394748 -0.21389330683959606 2.2622428939013837 0 0 0
154 1 8.462892955321792 -3.287272257411894 -3.1602571044021532 0 0 0
155 1 8.020453203707305 -1.5316900301192717 -1.3527571047439721 0 0 0
156 1 7.582969154556764 0.22004530797420152 0.4547428949987659 0 0 0
157 1 7.150395377165694 1.9695363895402114 2.2622428947691264 0 0 0
158 1 9.776097837479696 -1.0954154187190426 -3.1602571036977354 0 0 0
159 1 9.340232721206306 0.6566683137360823 -1.3527571039434283 0 0 0
160 1 8.903671157384537 2.4097130395623356 0.4547428958495022 0 0 0
161 1 8.462892955310167 4.16524906760422 2.2622428956063287 0 0 0
162 1 11.093849642809346 1.0953536250489169 -3.1602571028701067 0 0 0
163 1 10.654804194943111 2.849629558992758 -1.3527571031247894 0 0 0
164 1 10.21458061394273 4.604021423314284 0.4547428966050177 0 0 0
165 1 9.776097837487896 6.357105906270666 2.262242896309772 0 0 0
166 1 12.407324142442917 3.288260497366844 -3.1602571021811183 0 0 0
167 1 11.968700698771784 5.041723196339769 -1.3527571024092542 0 0 0
168 1 11.531234247746553 6.794627293046732 0.45474289731669904 0 0 0
169 1 11.09384964283906 8.54787495001215 2.2622428971346658 0 0 0
170 1 13.72285290510166 5.479690990220734 -3.1602571014589227 0 0 0
171 1 13.284943799478626 7.233048126542224 -1.3527571017070041 0 0 0
172 1 12.846432168828997 8.986824476603795 0.454742898044557 0 0 0
173 1 12.407324142475304 10.740781822310568 2.262242897819861 0 0 0
174 1 15.038100711503674 7.67163341205122 -3.1602571007262656 0 0 0
175 1 14.599443964686117 9.425351841722962 -1.3527571010127881 0 0 0
176 1 14.160906088691448 11.178911528545799 0.45474289872299484 0 0 0
177 1 13.722852905106564 12.932212315166188 2.262242898539288 0 0 0
178 1 16.352894069460774 9.863643193947452 -3.1602570999429944 0 0 0
179 1 15.914628045848161 11.617096688905741 -1.3527571002303231 0 0 0
180 1 15.476469313492387 13.370545477286738 0.45474289954447306 0 0 0
181 2 -0.8779025745897115 -13.035863790609312 0.4547428884462183 0 0 0
182 1 17.668166810535723 12.05542498517237 -3.1602570991577164 0 0 0
183 1 17.229824863545602 13.808981915506022 -1.3527570993741895 0 0 0
184 1 18.98318858402476 14.24737736248907 -3.160257098377216 0 0 0
185 1 0.28972224786079437 -14.622639161334028 2.2622428908330448 0 0 0
186 1 1.8936065253860335 -14.18144575955548 0.4547428913781187 0 0 0
187 1 1.3552260836190015 -12.463673328556071 2.2622428912099877 0 0 0
188 1 3.617002606465789 -13.794158214514258 -1.35275710755477 0 0 0
189 1 3.2083678784454293 -12.049908773260107 0.4547428923779284 0 0 0
190 1 2.7748102448523326 -10.329378575667997 2.2622428919718103 0 0 0
191 1 5.388984210174669 -13.372099827775953 -3.1602571063433746 0 0 0
192 1 4.967175650719753 -11.62196355673334 -1.3527571065431439 0 0 0
193 1 4.532637899250318 -9.869379412745197 0.45474289311726646 0 0 0
194 1 4.068619642967278 -8.105295085964928 2.2622428926381892 0 0 0
195 1 6.715862016576239 -11.181833012494176 -3.160257105455324 0 0 0
196 1 6.270616192453261 -9.421544410262587 -1.3527571057885608 0 0 0
197 1 5.82117154539857 -7.666414631856182 0.45474289389295275 0 0 0
198 1 5.388984210204995 -5.919578502717881 2.262242893650471 0 0 0
199 1 8.020453203688504 -8.984211355202213 -3.160257104752639 0 0 0
200 1 7.582969154551876 -7.232476017083227 -1.3527571050112306 0 0 0
201 1 7.150395377179763 -5.4829849354779 0.4547428947592324 0 0 0
202 1 6.715862016603083 -3.7293116874250742 2.2622428945485784 0 0 0
203 1 9.340232721185501 -6.795853011351028 -3.1602571039533385 0 0 0
204 1 8.903671157377332 -5.04280828549229 -1.352757104158485 0 0 0
205 1 8.462892955321408 -3.2872722574118853 0.4547428955963864 0 0 0
206 1 8.02045320370604 -1.5316900301187797 2.262242895256587 0 0 0
207 1 10.654804194909744 -4.602891766085122 -3.1602571031331315 0 0 0
208 1 10.21458061391975 -2.848499901726491 -1.3527571034009684 0 0 0
209 1 9.776097837480293 -1.0954154187189467 0.45474289630234455 0 0 0
210 1 9.340232721205439 0.6566683137358549 2.2622428960555765 0 0 0
211 1 11.96870069871268 -2.4107981287145908 -3.1602571024154185 0 0 0
212 1 11.531234247697611 -0.6578940319631581 -1.3527571026869207 0 0 0
213 1 11.093849642810596 1.0953536250488316 0.4547428971301817 0 0 0
214 1 10.654804194943736 2.849629558992918 2.2622428968755166 0 0 0
215 1 13.28494379939552 -0.21947319848471558 -3.1602571017103314 0 0 0
216 1 12.846432168765716 1.5343031516153882 -1.3527571019572395 0 0 0
217 1 12.407324142443741 3.28826049736673 0.454742897818845 0 0 0
218 1 11.968700698772892 5.041723196338305 2.2622428975919164 0 0 0
219 1 14.599443964606365 1.9728305167086173 -3.1602571010122786 0 0 0
220 1 14.160906088645461 3.7263902035653818 -1.3527571012769173 0 0 0
221 1 13.722852905102457 5.479690990219874 0.4547428985413105 0 0 0
222 1 13.284943799478981 7.233048126541496 2.262242898293722 0 0 0
223 1 15.914628045790565 4.164575363883705 -3.1602571002283537 0 0 0
224 1 15.476469313477864 5.918024152293649 -1.3527571004552785 0 0 0
225 1 15.038100711504413 7.671633412050445 0.45474289927397815 0 0 0
226 1 14.599443964686657 9.425351841722955 2.262242898988491 0 0 0
227 1 17.22982486353378 6.356460590467593 -3.160257099373161 0 0 0
228 1 16.79135344301912 8.110075865362552 -1.3527570996633536 0 0 0
229 1 16.35289406946093 9.863643193947466 0.45474290005631635 0 0 0
230 1 15.91462804584829 11.617096688905947 2.262242899770321 0 0 0
231 1 18.54477906072391 8.54841548250817 -3.1602570985852516 0 0 0
232 1 18.10644265148801 10.301927387990409 -1.3527570988864985 0 0 0
233 1 17.668166810536036 12.055424985172225 0.4547429008419649 0 0 0
234 1 17.22982486354583 13.808981915505582 2.2622429006256066 0 0 0
235 1 19.8599334842703 10.740263847993885 -3.1602570978588513 0 0 0
236 1 19.421588661186462 12.493806579197871 -1.3527570981610177 0 0 0
237 1 18.98318858402523 14.247377362488185 0.4547429016229184 0 0 0
238 1 21.175000799396315 12.932178583211195 -3.1602570971865367 0 0 0
239 1 20.736617439022524 14.685730174393475 -1.352757097445813 0 0 0
240 2 -2.0455273983968567 -14.622639156704338 -1.3527571139435333 0 0 0
241 1 3.6170026064522602 -13.7941582145191 2.2622428924413995 0 0 0
242 1 5.388984210171358 -13.372099827773926 0.45474289365203946 0 0 0
243 1 4.967175650721799 -11.62196355673164 2.2622428934557823 0 0 0
244 1 7.582969154515396 -14.68499734214924 -3.1602571050054014 0 0 0
245 1 7.150395377145273 -12.935506260559393 -1.3527571052405707 0 0 0
246 1 6.715862016576523 -11.18183301249368 0.4547428945454878 0 0 0
247 1 6.270616192448884 -9.421544410263955 2.2622428942116204 0 0 0
248 1 8.90367115735711 -12.49532961058272 -3.1602571041612615 0 0 0
249 1 8.462892955298457 -10.739793582504205 -1.3527571044058933 0 0 0
250 1 8.020453203689058 -8.984211355202486 0.4547428952470929 0 0 0
251 1 7.582969154553069 -7.232476017080583 2.2622428949897535 0 0 0
252 1 10.214580613900125 -10.301021226827284 -3.1602571034073184 0 0 0
253 1 9.776097837455936 -8.54793674382377 -1.352757103702765 0 0 0
254 1 9.340232721185984 -6.7958530113522855 0.45474289604635987 0 0 0
255 1 8.90367115737682 -5.042808285493868 2.262242895841995 0 0 0
256 1 11.531234247669119 -8.110415357067472 -3.1602571026937074 0 0 0
257 1 11.093849642772142 -6.357167700049294 -1.3527571028750203 0 0 0
258 1 10.654804194909744 -4.602891766085582 0.45474289686630254 0 0 0
259 1 10.214580613919836 -2.848499901726246 2.2622428965990995 0 0 0
260 1 12.846432168713449 -5.918218173476108 -3.1602571019620282 0 0 0
261 1 12.407324142382038 -4.1642608277133935 -1.3527571021857119 0 0 0
262 1 11.96870069871214 -2.4107981287142106 0.45474289758531966 0 0 0
263 1 11.531234247698478 -0.657894031962714 2.2622428973125124 0 0 0
264 1 14.160906088558562 -3.726131121504345 -3.160257101278392 0 0 0
265 1 13.722852905007855 -1.9728303348347538 -1.3527571014619462 0 0 0
266 1 13.284943799394426 -0.21947319848432834 0.4547428982896427 0 0 0
267 1 12.846432168766228 1.5343031516155836 2.262242898041816 0 0 0
268 1 15.476469313366977 -1.5344971727544117 -3.160257100454736 0 0 0
269 1 15.038100711401341 0.2191120870143628 -1.3527571007298844 0 0 0
270 1 14.599443964606124 1.9728305167086386 0.4547428989879929 0 0 0
271 1 14.160906088645817 3.726390203566117 2.262242898722437 0 0 0
272 1 16.791353442908786 0.6575545403147967 -3.1602570996609027 0 0 0
273 1 16.3528940693688 2.4111218689056226 -1.3527570999449448 0 0 0
274 1 15.914628045789811 4.164575363883882 0.4547428997717527 0 0 0
275 1 15.47646931347802 5.918024152294057 2.262242899543993 0 0 0
276 1 18.106442651407576 2.8494060629301803 -3.160257098885093 0 0 0
277 1 17.66816681048529 4.602903660115347 -1.3527570991594078 0 0 0
278 1 17.229824863533295 6.356460590468243 0.45474290062697287 0 0 0
279 1 16.79135344301885 8.110075865363063 2.2622429003364832 0 0 0
280 1 19.421588661141342 5.041285254113289 -3.16025709816276 0 0 0
281 1 18.983188584011714 6.794856037410339 -1.3527570983823862 0 0 0
282 1 18.544779060723627 8.548415482508409 0.4547429014141834 0 0 0
283 1 18.106442651487953 10.301927387990963 2.262242901113062 0 0 0
284 1 20.736617439022453 7.233208849285409 -3.1602570974529764 0 0 0
285 1 20.298260243807704 8.986741554732665 -1.3527570976125984 0 0 0
286 1 19.859933484269632 10.740263847993978 0.45474290214081564 0 0 0
287 1 19.421588661185723 12.493806579197335 2.2622429018374572 0 0 0
288 1 22.05172601769999 9.425085643005636 -3.160257096749828 0 0 0
289 1 21.61337465014762 11.178625794711868 -1.352757096957384 0 0 0
290 1 21.17500079939518 12.932178583211206 0.4547429028139405 0 0 0
291 1 20.736617439023348 14.685730174393404 2.262242902554292 0 0 0
292 1 23.366806852162398 11.616986959057256 -3.1602570961044107 0 0 0
293 1 22.928436067970992 13.370533701065439 -1.3527570962747222 0 0 0
294 2 -2.756542870989904 -10.841000972856353 -3.160257113681308 0 0 1
295 1 24.68188412840371 13.808883393741601 -3.1602570955642175 0 0 0
296 1 7.582969154516533 -14.684997342151076 0.4547428949939546 0 0 0
297 1 7.150395377147987 -12.935506260559151 2.262242894760899 0 0 0
298 1 9.340232721176676 -14.248374336412969 -1.3527571039489645 0 0 0
299 1 8.903671157357905 -12.495329610581598 0.45474289583966043 0 0 0
300 1 8.462892955297363 -10.739793582505655 2.262242895594152 0 0 0
301 1 11.0938496427937 -13.809689025094736 -3.1602571028755717 0 0 0
302 1 10.65480419490666 -12.055413091167523 -1.3527571031335401 0 0 0
303 1 10.214580613900125 -10.301021226826679 0.4547428965928594 0 0 0
304 1 9.776097837456874 -8.547936743822845 2.262242896296232 0 0 0
305 1 12.40732414240155 -11.616782152773647 -3.1602571021888517 0 0 0
306 1 11.968700698703117 -9.86331945380414 -1.3527571024184406 0 0 0
307 1 11.53123424766919 -8.110415357067511 0.4547428973057495 0 0 0
308 1 11.093849642771787 -6.357167700050148 2.2622428971250534 0 0 0
309 1 13.722852905010086 -9.425351659895558 -3.1602571014651737 0 0 0
310 1 13.284943799362665 -7.671994523569772 -1.3527571017134385 0 0 0
311 1 12.846432168713932 -5.918218173475834 0.4547428980376105 0 0 0
312 1 12.407324142382393 -4.164260827712839 2.262242897813882 0 0 0
313 1 15.038100711370078 -7.233409238036204 -3.1602571007282654 0 0 0
314 1 14.599443964540285 -5.479690808357882 -1.3527571010149044 0 0 0
315 1 14.160906088558761 -3.7261311215048156 0.45474289872122653 0 0 0
316 1 13.72285290500841 -1.9728303348346206 2.2622428985384153 0 0 0
317 1 16.352894069298713 -5.041399456120585 -3.160257099940867 0 0 0
318 1 15.91462804569126 -3.2879459611616966 -1.352757100229517 0 0 0
319 1 15.476469313368199 -1.5344971727545431 0.45474289954518105 0 0 0
320 1 15.038100711401256 0.2191120870138068 2.2622428992703845 0 0 0
321 1 17.668166810390915 -2.8496176649014906 -3.1602570991538204 0 0 0
322 1 17.229824863422934 -1.0960607345703153 -1.3527570993736135 0 0 0
323 1 16.79135344290968 0.6575545403147736 0.4547429003386325 0 0 0
324 1 16.352894069368375 2.411121868906511 2.2622429000547455 0 0 0
325 1 18.983188583919116 -0.6576652876136482 -3.160257098376126 0 0 0
326 1 18.544779060630034 1.0958941574566108 -1.3527570985830535 0 0 0
327 1 18.106442651407534 2.8494060629295124 0.4547429011153591 0 0 0
328 1 17.668166810484664 4.602903660115738 2.262242900840353 0 0 0
329 1 20.298260243737644 1.5342202296853156 -3.160257097608732 0 0 0
330 1 19.859933484205996 3.287742522919954 -1.3527570978588024 0 0 0
331 1 19.421588661142252 5.041285254113168 0.45474290183791527 0 0 0
332 1 18.983188584011316 6.794856037410289 2.2622429016187904 0 0 0
333 1 21.61337465011897 3.7261044696342633 -3.1602570969561206 0 0 0
334 1 21.175000799376818 5.479657258110036 -1.3527570971909355 0 0 0
335 1 20.736617439022368 7.233208849285587 0.4547429025462991 0 0 0
336 1 20.298260243807817 8.986741554731955 2.2622429023878077 0 0 0
337 1 22.928436067976193 5.918012375957089 -3.160257096281857 0 0 0
338 1 22.49007397441457 7.671551967411771 -1.3527570965291142 0 0 0
339 1 22.051726017701142 9.425085643005401 0.45474290325013095 0 0 0
340 1 21.613374650146994 11.17862579471098 2.2622429030433753 0 0 0
341 1 24.243527769640906 8.10990072381846 -3.1602570957705485 0 0 0
342 1 23.805171671722277 9.863441143493231 -1.3527570959291435 0 0 0
343 1 23.366806852161417 11.616986959057575 0.4547429038955453 0 0 0
344 1 22.92843606797142 13.370533701065979 2.2622429037256246 0 0 0
345 1 25.55861181649597 10.301797584914828 -3.160257095253705 0 0 0
346 1 25.120246680252137 12.05534176738439 -1.3527570953534798 0 0 0
347 1 24.68188412840462 13.808883393741 0.4547429044354466 0 0 0
348 1 26.873692086439334 12.493693871493113 -3.1602570947513318 0 0 0
349 1 26.435332555847296 14.24723459627109 -1.352757094892457 0 0 0
350 1 28.188778135307416 14.68558776419736 -3.160257094374954 0 0 0
351 1 9.340232721176903 -14.248374336412066 2.2622428960512164 0 0 0
352 1 11.093849642792591 -13.809689025094862 0.4547428971241366 0 0 0
353 1 10.654804194905125 -12.055413091167477 2.262242896867026 0 0 0
354 1 12.846432168767123 -13.370739498492577 -1.3527571019619513 0 0 0
355 1 12.407324142401706 -11.616782152774196 0.4547428978112877 0 0 0
356 1 11.968700698702989 -9.863319453803085 2.2622428975817175 0 0 0
357 1 14.599443964618416 -12.932212133342704 -3.1602571010154508 0 0 0
358 1 14.160906088598878 -11.178652446529497 -1.35275710128128 0 0 0
359 1 13.722852905009944 -9.425351659895139 0.45474289853519556 0 0 0
360 1 13.284943799362736 -7.671994523569679 2.2622428982869986 0 0 0
361 1 15.914628045746625 -10.740467286144556 -3.1602571002288986 0 0 0
362 1 15.476469313380136 -8.987018497771935 -1.3527571004565593 0 0 0
363 1 15.038100711369722 -7.233409238035972 0.45474289927182776 0 0 0
364 1 14.599443964540114 -5.479690808358066 2.262242898984977 0 0 0
365 1 17.22982486343625 -8.548582059536985 -3.1602570993674735 0 0 0
366 1 16.79135344287836 -6.79496678468495 -1.352757099660225 0 0 0
367 1 16.352894069298827 -5.041399456120763 0.45474290005982976 0 0 0
368 1 15.91462804569197 -3.2879459611617126 2.2622428997704453 0 0 0
369 1 18.544779060606245 -6.356627167490878 -3.1602570985750997 0 0 0
370 1 18.10644265134532 -4.6031152620531675 -1.35275709888054 0 0 0
371 1 17.668166810390844 -2.849617664901606 0.454742900846606 0 0 0
372 1 17.229824863422422 -1.0960607345703561 2.2622429006266365 0 0 0
373 1 19.859933484158077 -4.164778802023182 -3.160257097847924 0 0 0
374 1 19.421588661067148 -2.4112360708762637 -1.3527570981564025 0 0 0
375 1 18.98318858391876 -0.6576652876132272 0.4547429016240695 0 0 0
376 1 18.544779060630432 1.0958941574566214 2.262242901415892 0 0 0
377 1 21.175000799334228 -1.9728640668480075 -3.160257097179315 0 0 0
378 1 20.73661743896062 -0.21931247571932033 -1.3527570974460048 0 0 0
379 1 20.29826024373682 1.534220229685607 0.45474290239210696 0 0 0
380 1 19.85993348420604 3.2877425229195953 2.262242902141221 0 0 0
381 1 22.490073974392942 0.21903064243126025 -3.160257096520259 0 0 0
382 1 22.051726017669452 1.9725643179709333 -1.352757096744833 0 0 0
383 1 21.613374650119255 3.726104469634441 0.4547429030438826 0 0 0
384 1 21.175000799376974 5.479657258109702 2.262242902809683 0 0 0
385 1 23.805171671738776 2.4109198184754685 -3.1602570959249583 0 0 0
386 1 23.366806852170797 4.164465633986294 -1.3527570961053152 0 0 0
387 1 22.928436067975596 5.918012375957039 0.45474290371761994 0 0 0
388 1 22.49007397441457 7.671551967411544 2.2622429034706144 0 0 0
389 1 25.120246680300454 4.60282044233576 -3.16025709535844 0 0 0
390 1 24.681884128434604 6.356362068649 -1.3527570955734436 0 0 0
391 1 24.243527769640508 8.109900723818198 0.45474290422995045 0 0 0
392 1 23.80517167172175 9.863441143492947 2.2622429040713907 0 0 0
393 1 26.43533255589861 6.794713271216738 -3.160257094905257 0 0 0
394 1 25.996973792393916 8.548254330256013 -1.3527570950806622 0 0 0
395 1 25.558611816496494 10.30179758491453 0.4547429047456796 0 0 0
396 1 25.120246680251896 12.055341767385391 2.2622429046459227 0 0 0
397 1 27.75041692760665 8.986608811564194 -3.160257094506227 0 0 0
398 1 27.31205419792697 10.740151766299212 -1.3527570946520946 0 0 0
399 1 26.873692086438695 12.493693871492743 0.45474290524866356 0 0 0
400 1 26.435332555846998 14.247234596271008 2.262242905108744 0 0 0
401 1 29.065498894035386 11.17850469845328 -3.160257094167986 0 0 0
402 1 28.62713823253881 12.932046243877673 -1.3527570942499398 0 0 0
403 1 28.1887781353077 14.68558776419693 0.45474290562499814 0 0 0
404 1 30.38058340049443 13.370399375564235 -3.160257093880507 0 0 0
405 2 -3.1110312370697386 -12.463673324000359 2.262242885856871 0 0 0
406 1 12.846432168766029 -13.370739498492702 2.2622428980386107 0 0 0
407 1 15.03810071147447 -14.685930562989022 -1.352757100730097 0 0 0
408 1 14.599443964618374 -12.932212133343157 0.45474289898425235 0 0 0
409 1 14.160906088598608 -11.178652446529451 2.2622428987186747 0 0 0
410 1 16.79135344298851 -14.247488109629675 -3.160257099661504 0 0 0
411 1 16.352894069387716 -12.493920781075676 -1.3527570999440421 0 0 0
412 1 15.914628045746909 -10.740467286144327 0.454742899771133 0 0 0
413 1 15.47646931337978 -8.987018497771913 2.262242899543986 0 0 0
414 1 18.106442651426292 -12.055636586987024 -3.160257098879828 0 0 0
415 1 17.66816681044395 -10.302138989843186 -1.3527570991540767 0 0 0
416 1 17.22982486343645 -8.548582059537372 0.4547429006321342 0 0 0
417 1 16.791353442878446 -6.794966784685693 2.2622429003400035 0 0 0
418 1 19.42158866111285 -9.863757395781326 -3.160257098149696 0 0 0
419 1 18.983188583933583 -8.11018661253157 -1.3527570983702952 0 0 0
420 1 18.544779060606558 -6.35662716749094 0.4547429014252549 0 0 0
421 1 18.106442651345517 -4.603115262053299 2.2622429011199627 0 0 0
422 1 20.73661743896818 -7.6718338006044755 -3.160257097435339 0 0 0
423 1 20.29826024372106 -5.918301095222105 -1.3527570975977996 0 0 0
424 1 19.85993348415859 -4.164778802023049 0.45474290215231417 0 0 0
425 1 19.421588661067034 -2.411236070875857 2.2622429018449335 0 0 0
426 1 22.05172601767005 -5.479957006910896 -3.160257096730473 0 0 0
427 1 21.613374650097413 -3.7264168552742323 -1.3527570969435196 0 0 0
428 1 21.175000799334782 -1.9728640668476167 0.4547429028199398 0 0 0
429 1 20.736617438960067 -0.21931247571922619 2.2622429025538078 0 0 0
430 1 23.366806852173355 -3.2880556909033913 -3.1602570960904877 0 0 0
431 1 22.928436067969287 -1.5345089489719417 -1.352757096268366 0 0 0
432 1 22.49007397439196 0.2190306424321875 0.4547429034795393 0 0 0
433 1 22.05172601766934 1.9725643179711856 2.2622429032552627 0 0 0
434 1 24.6818841284651 -1.0961592562655902 -3.160257095560911 0 0 0