#LAMMPS data file
344 atoms
2 atom types
-125.1250000000 125.1250000000 xlo xhi
-14.9050426500 14.9050426500 ylo yhi
-3.6150000000 3.6150000000 zlo zhi
0.0 0.0 0.0 xy xz yz

Atoms # atomic

1 1 -0.8779025746 -13.0358637906 -3.1602571116
2 1 -3.6494116768 -14.1814457538 -3.1602571144
3 1 -0.8779025762 -9.3551397845 -3.1602571115
4 1 -0.8779025766 -11.1822223011 2.2622428884
5 1 -0.8779025746 -13.0358637906 0.4547428884
6 1 -2.7565428710 -10.8410009729 -3.1602571137
7 1 -3.1110312371 -12.4636733240 2.2622428859
8 1 -3.6494116768 -14.1814457538 0.4547428856
9 1 -4.9641730315 -12.0499087667 -3.1602571151
10 1 -5.3728077590 -13.7941582076 2.2622428847
11 1 -7.1447893631 -13.3720998193 -3.1602571163
12 1 -7.5769766981 14.6911493520 -1.3527571164
13 1 -0.8779025762 -9.3551397845 0.4547428885
14 1 -0.8779025766 -11.1822223011 -1.3527571116
15 1 -2.0455273986 -7.1701178317 -3.1602571139
16 1 -2.4202271128 -8.9645626972 2.2622428870
17 1 -2.7565428710 -10.8410009728 0.4547428863
18 1 -3.1110312371 -12.4636733240 -1.3527571141
19 1 -4.1160212677 -8.5784429738 -3.1602571143
20 1 -4.5306153971 -10.3293785687 2.2622428852
21 1 -4.9641730315 -12.0499087667 0.4547428849
22 1 -5.3728077590 -13.7941582076 -1.3527571153
23 1 -6.2884430515 -9.8693794045 -3.1602571158
24 1 -6.7229808032 -11.6219635483 2.2622428840
25 1 -7.1447893631 -13.3720998193 0.4547428837
26 1 -8.4716671691 -11.1818330028 -3.1602571170
27 1 -8.9062005300 -12.9355062506 2.2622428827
28 1 -0.8779025766 -3.7297009762 -3.1602571115
29 1 -0.8779025746 -5.5833424657 2.2622428884
30 1 -2.0455273986 -7.1701178317 0.4547428861
31 1 -2.4202271128 -8.9645626972 -1.3527571130
32 1 -3.1110312371 -5.0111519990 -3.1602571141
33 1 -3.6494116769 -6.7289244288 2.2622428856
34 1 -4.1160212677 -8.5784429738 0.4547428857
35 1 -4.5306153971 -10.3293785687 -1.3527571148
36 1 -5.3728077591 -6.3416368826 -3.1602571153
37 1 -5.8244247952 -8.1052950782 2.2622428846
38 1 -6.2884430515 -9.8693794045 0.4547428842
39 1 -6.7229808032 -11.6219635483 -1.3527571160
40 1 -7.5769766982 -7.6664146230 -3.1602571164
41 1 -8.0264213450 -9.4215444009 2.2622428833
42 1 -8.4716671691 -11.1818330028 0.4547428830
43 1 -8.9062005300 -12.9355062506 -1.3527571173
44 1 -9.7762583566 -8.9842113446 -3.1602571178
45 1 -9.7762583566 13.3733526305 -1.3527571178
46 1 -9.7762583566 13.3733526305 2.2622428822
47 1 -8.4716671691 11.1757309723 -1.3527571170
48 1 -8.0264213450 12.9360195741 0.4547428833
49 1 -7.5769766981 14.6911493520 2.2622428836
50 1 -6.2884430514 12.4881845705 -1.3527571158
51 1 -5.8244247951 14.2522688968 0.4547428846
52 1 -4.1160212676 13.7791210011 -1.3527571143
53 1 -9.3387743075 7.6725666433 -1.3527571175
54 1 -8.9062005300 9.4220577245 0.4547428827
55 1 -8.4716671691 11.1757309723 2.2622428830
56 1 -8.0264213450 12.9360195741 -3.1602571167
57 1 -7.1447893631 8.9854641557 -1.3527571163
58 1 -6.7229808032 10.7356004266 0.4547428839
59 1 -6.2884430514 12.4881845705 2.2622428842
60 1 -5.8244247951 14.2522688968 -3.1602571154
61 1 -4.9641730315 10.3076552083 -1.3527571151
62 1 -4.5306153971 12.0281854063 0.4547428852
63 1 -4.1160212676 13.7791210011 2.2622428857
64 1 -2.7565428710 11.5165630021 -1.3527571137
65 1 -2.4202271128 13.3930012778 0.4547428870
66 1 -0.8779025762 13.0024241906 -1.3527571115
67 1 -9.7762583566 5.9208313055 0.4547428822
68 1 -9.3387743075 7.6725666433 2.2622428825
69 1 -8.9062005300 9.4220577245 -3.1602571173
70 1 -8.0264213450 5.4834982491 -1.3527571167
71 1 -7.5769766981 7.2386280270 0.4547428836
72 1 -7.1447893631 8.9854641557 2.2622428837
73 1 -6.7229808032 10.7356004266 -3.1602571160
74 1 -5.8244247951 6.7997475718 -1.3527571154
75 1 -5.3728077590 8.5634057674 0.4547428847
76 1 -4.9641730315 10.3076552083 2.2622428849
77 1 -4.5306153971 12.0281854063 -3.1602571148
78 1 -3.6494116768 8.1761182211 -1.3527571144
79 1 -3.1110312370 9.8938906510 0.4547428858
80 1 -2.7565428710 11.5165630021 2.2622428863
81 1 -2.4202271128 13.3930012778 -3.1602571130
82 1 -0.8779025746 9.3217001843 -1.3527571116
83 1 -0.8779025766 11.1753416738 0.4547428884
84 1 -0.8779025762 13.0024241905 2.2622428885
85 1 -9.7762583566 5.9208313055 -3.1602571178
86 1 -8.9062005300 1.9695363995 -1.3527571173
87 1 -8.4716671692 3.7232096473 0.4547428830
88 1 -8.0264213450 5.4834982491 2.2622428833
89 1 -7.5769766981 7.2386280270 -3.1602571164
90 1 -6.7229808032 3.2830791017 -1.3527571160
91 1 -6.2884430515 5.0356632455 0.4547428842
92 1 -5.8244247951 6.7997475718 2.2622428846
93 1 -5.3728077590 8.5634057674 -3.1602571153
94 1 -4.5306153971 4.5756640813 -1.3527571148
95 1 -4.1160212676 6.3265996761 0.4547428857
96 1 -3.6494116768 8.1761182212 2.2622428856
97 1 -3.1110312370 9.8938906509 -3.1602571141
98 1 -2.4202271128 5.9404799528 -1.3527571130
99 1 -2.0455273984 7.7349248182 0.4547428861
100 1 -0.8779025746 9.3217001844 2.2622428884
101 1 -0.8779025766 11.1753416739 -3.1602571115
102 1 -9.7762583566 -1.5316900195 -1.3527571178
103 1 -9.3387743076 0.2200453183 0.4547428825
104 1 -8.9062005300 1.9695363995 2.2622428827
105 1 -8.4716671692 3.7232096473 -3.1602571170
106 1 -7.5769766982 -0.2138932979 -1.3527571164
107 1 -7.1447893632 1.5329428308 0.4547428837
108 1 -6.7229808032 3.2830791017 2.2622428840
109 1 -6.2884430515 5.0356632455 -3.1602571158
110 1 -5.3728077591 1.1108844424 -1.3527571153
111 1 -4.9641730316 2.8551338833 0.4547428849
112 1 -4.5306153971 4.5756640813 2.2622428852
113 1 -4.1160212676 6.3265996761 -3.1602571143
114 1 -3.1110312371 2.4413693259 -1.3527571141
115 1 -2.7565428710 4.0640416770 0.4547428863
116 1 -2.4202271128 5.9404799528 2.2622428870
117 1 -2.0455273985 7.7349248182 -3.1602571139
118 1 -0.8779025766 3.7228203487 -1.3527571116
119 1 -0.8779025761 5.5499028655 0.4547428885
120 1 -9.7762583566 -1.5316900195 2.2622428822
121 1 -9.3387743076 0.2200453183 -3.1602571175
122 1 -8.4716671692 -3.7293116777 -1.3527571170
123 1 -8.0264213451 -1.9690230759 0.4547428833
124 1 -7.5769766982 -0.2138932979 2.2622428836
125 1 -7.1447893632 1.5329428308 -3.1602571163
126 1 -6.2884430515 -2.4168580795 -1.3527571158
127 1 -5.8244247952 -0.6527737532 0.4547428846
128 1 -5.3728077591 1.1108844424 2.2622428847
129 1 -4.9641730316 2.8551338833 -3.1602571151
130 1 -4.1160212677 -1.1259216489 -1.3527571143
131 1 -3.6494116769 0.7235968961 0.4547428856
132 1 -3.1110312371 2.4413693259 2.2622428859
133 1 -2.7565428710 4.0640416770 -3.1602571137
134 1 -2.0455273984 0.2824034932 -1.3527571139
135 1 -0.8779025746 1.8691788593 0.4547428884
136 1 -0.8779025766 3.7228203488 2.2622428884
137 1 -0.8779025761 5.5499028654 -3.1602571115
138 1 -9.3387743076 -7.2324760067 -1.3527571175
139 1 -8.9062005300 -5.4829849255 0.4547428827
140 1 -8.4716671692 -3.7293116777 2.2622428830
141 1 -8.0264213451 -1.9690230759 -3.1602571167
142 1 -7.1447893632 -5.9195784942 -1.3527571163
143 1 -6.7229808033 -4.1694422233 0.4547428840
144 1 -6.2884430515 -2.4168580795 2.2622428842
145 1 -5.8244247952 -0.6527737532 -3.1602571154
146 1 -4.9641730316 -4.5973874417 -1.3527571151
147 1 -4.5306153972 -2.8768572437 0.4547428852
148 1 -4.1160212677 -1.1259216489 2.2622428857
149 1 -3.6494116769 0.7235968961 -3.1602571144
150 1 -2.7565428711 -3.3884796480 -1.3527571137
151 1 -2.4202271128 -1.5120413722 0.4547428870
152 1 -2.0455273985 0.2824034932 2.2622428861
153 1 -0.8779025746 1.8691788593 -3.1602571116
154 1 -0.8779025761 -1.9026184595 -1.3527571115
155 1 -9.7762583566 -8.9842113446 0.4547428822
156 1 -9.3387743076 -7.2324760067 2.2622428825
157 1 -8.9062005300 -5.4829849255 -3.1602571173
158 1 -8.0264213450 -9.4215444009 -1.3527571167
159 1 -7.5769766982 -7.6664146230 0.4547428836
160 1 -7.1447893632 -5.9195784942 2.2622428837
161 1 -6.7229808033 -4.1694422233 -3.1602571160
162 1 -5.8244247952 -8.1052950782 -1.3527571154
163 1 -5.3728077591 -6.3416368826 0.4547428847
164 1 -4.9641730316 -4.5973874417 2.2622428849
165 1 -4.5306153972 -2.8768572437 -3.1602571148
166 1 -3.6494116769 -6.7289244288 -1.3527571144
167 1 -3.1110312371 -5.0111519990 0.4547428858
168 1 -2.7565428711 -3.3884796480 2.2622428863
169 1 -2.4202271128 -1.5120413722 -3.1602571130
170 1 -0.8779025746 -5.5833424657 -1.3527571116
171 1 -0.8779025766 -3.7297009762 0.4547428884
172 1 -0.8779025761 -1.9026184595 2.2622428885
173 2 -0.4570098965 -13.4279772666 -3.1370840780
174 2 -5.0903994258 -14.6198946057 1.7338018974
175 2 -0.8607404421 -11.7678494745 -1.2588616396
176 2 -0.8642079732 -11.7715452676 2.2129679880
177 2 -2.7366308873 -12.1909104782 0.4790148836
178 2 -2.9936367231 -10.3669270366 2.2728087199
179 2 -3.8504512598 -14.3235487598 -3.1365488184
180 2 -4.5459231454 -12.4279426054 2.4046155051
181 2 -6.1954336949 -14.7983756027 -3.1362756022
182 2 -2.6128931045 -12.1286589130 -3.1395974652
183 2 -0.7392281369 -4.2139439538 0.4961933656
184 2 -3.3596443670 -8.5637451828 0.4869982516
185 2 -2.9864783330 -10.3784374605 -1.3179581692
186 2 -5.0513878203 -8.8648024422 2.2862281433
187 2 -4.7688081693 -10.7922498255 0.4820176539
188 2 -4.5478523028 -12.4230441876 -1.4512947131
189 2 -5.0880198071 -14.6162778437 -0.7759508266
190 2 -3.3361169482 -8.5552313777 -3.1466320370
191 2 -2.4662093008 -4.6029443111 2.2851796570
192 2 -2.0607233983 -6.3546773250 0.5197489962
193 2 -5.0184423951 -8.9030399703 -1.3293807730
194 2 -4.7420914683 -10.6979787666 -3.1435586962
195 2 -3.8382167606 -6.6874792042 2.2855772024
196 2 -5.3995402128 -7.0820714956 0.4162548541
197 2 -1.2639506328 -9.9586745838 0.4806631965
198 2 -4.8140293628 13.0858576202 -3.1373573382
199 2 -1.6577193534 -8.1370390153 2.2836332190
200 2 -4.2877315673 9.8176415518 -3.1371609583
201 2 -4.6972533541 11.3668076743 -1.3284362017
202 2 -4.9239984327 13.0808930678 0.4776919336
203 2 -2.7738636340 11.8700208595 -3.1370894372
204 2 -3.2913324790 13.6091682493 -1.3230202641
205 2 -1.6588334690 14.1909366357 -3.1370856024
206 2 -5.3837133952 7.6923577147 -3.1374128792
207 2 -3.7692709627 8.1109584768 -1.3300627719
208 2 -4.2930520222 9.8135864926 0.4776655308
209 2 -4.6973614722 11.3664899271 2.2839324503
210 2 -2.0319820948 8.4966755000 -3.1372375938
211 2 -2.4279688010 10.2148705900 -1.3247954241
212 2 -2.8128044075 11.8868233149 0.4775484372
213 2 -3.2911157451 13.6079778201 2.2784813682
214 2 -0.6415075551 10.6452521291 -3.1372682102
215 2 -1.1052805886 12.4164183342 -1.3223059057
216 2 -1.6792272041 14.2132627596 0.4773365500
217 2 -5.3840299591 7.6890981526 0.4779797751
218 2 -3.7690694599 8.1110396072 2.2855930139
219 2 -4.6962280277 4.0450869995 -3.1371711262
220 2 -5.0163530957 5.8997182882 -1.3299197917
221 2 -2.0330220326 8.4911442388 0.4777348851
222 2 -2.4279725681 10.2150864420 2.2802756279
223 2 -3.3128449432 6.2804274108 -3.1371475432
224 2 -1.5934319400 6.7438417106 -1.3304292047
225 2 -0.2517184770 8.9107971215 -1.3290369184
226 2 -0.6550071943 10.6466046677 0.4777342680
227 2 -3.7966518426 0.7152225669 -3.1370036836
228 2 -4.3383893969 2.4323135671 -1.3297874694
229 2 -4.6961855949 4.0446498052 0.4776892895
230 2 -5.0160132650 5.8995299529 2.2855102926
231 2 -2.4795394427 2.8327565969 -3.1373848494
232 2 -2.9047976367 4.5409951157 -1.3300071055
233 2 -3.3130269882 6.2788089058 0.4776780147
234 2 -1.1051215082 12.4165321839 2.2777439230
235 2 -1.1386116299 4.9914925306 -3.1372758904
236 2 -1.1386668965 4.9917619442 0.4777529799
237 2 -5.3978304007 0.2795206863 -1.3286347762
238 2 -3.7953111539 0.7149189774 0.4774021767
239 2 -4.3367650264 2.4328974389 2.2852639591
240 2 -5.0247470002 -1.5115217149 -3.1363202767
241 2 -2.0729425236 1.0949216981 -1.3300469984
242 2 -2.4794084219 2.8329584730 0.4778418522
243 2 -2.9044330960 4.5413825390 2.2855005099
244 2 -1.6209570561 -0.6668802041 -3.1349760509
245 2 -0.2983854445 1.5014244305 -3.1366856265
246 2 -0.7126867635 3.2470848755 -1.3297862786
247 2 -1.5933922546 6.7439438802 2.2859269089
248 2 -5.3988621331 0.2825431675 2.2840184479
249 2 -4.3164191204 -4.9754241904 -3.1292884225
250 2 -4.6974114093 -3.3672085906 -1.3312267123
251 2 -5.0217559610 -1.5137812651 0.4766454489
252 2 -2.0720481453 1.0935679453 2.2854559536
253 2 -2.9084225200 -2.8733486593 -3.1390405392
254 2 -3.3262640674 -1.1311983354 -1.3305520304
255 2 -1.6207763367 -0.6662672513 0.4753325796
256 2 -0.2517493821 8.9108389767 2.2845157115
257 2 -1.1644933453 -2.4232669488 2.2853354979
258 2 -5.3997812432 -7.1024010246 -3.0783031112
259 2 -3.7328396139 -6.7053715514 -1.3317741661
260 2 -4.3079043814 -4.9679443490 0.4697912564
261 2 -4.6858756694 -3.3722901203 2.2865221526
262 2 -2.0560578469 -6.3490349638 -3.1814344985
263 2 -2.4714735763 -4.5925515269 -1.3306427686
264 2 -2.9057243583 -2.8710545272 0.4791416272
265 2 -3.3302453084 -1.1267534395 2.2858428445
266 2 -0.7380489860 -4.2109345721 -3.1556760579
267 2 -1.1578428231 -2.4445636754 -1.3300079078
268 2 -0.2984699003 1.5015766784 0.4771064106
269 2 -6.8238444791 -12.5393249318 -3.1386036915
270 2 -8.7846590410 -12.3507309924 2.2766441978
271 2 -9.1246319141 -14.0993968266 -3.1369893324
272 2 -6.6184193731 -9.2133900035 -3.1318952347
273 2 -6.6351061712 -10.9389269999 2.2480251424
274 2 -6.6033982440 -12.7499046261 0.4795246138
275 2 -9.3185795088 -14.0902782767 0.4784570577
276 2 -8.5299003749 -10.6501437441 -3.1345243604
277 2 -10.6212960211 -11.9858994384 -3.1365061555
278 2 -11.0017435412 -13.7143838698 2.3089721104
279 2 -6.5982263490 -9.1892690093 0.4734845727
280 2 -6.6376225088 -10.9424092975 -1.2919794311
281 2 -7.7462038674 -7.0164218307 -3.1675757684
282 2 -8.1534349895 -8.8064142249 2.2809182531
283 2 -8.4928128286 -10.6820932008 0.4760085012
284 2 -8.7859768331 -12.3534865261 -1.3205719896
285 2 -9.8385998228 -8.4284647192 -3.1355600460
286 2 -10.2412594399 -10.2167722259 2.2809588175
287 2 -10.6452745866 -11.9641843053 0.4777381792
288 2 -11.0022868365 -13.7151396034 -1.3526352049
289 2 -9.6833593637 13.8958569103 -1.3143268396
290 2 -9.6836830192 13.8954234984 2.2705457223
291 2 -8.3609571587 11.5895037590 -1.3254611930
292 2 -7.9764756865 13.4381215453 0.4780936162
293 2 -7.5437584342 -14.4600443026 2.1089869297
294 2 -6.4477276353 13.1137052314 -1.3773206936
295 2 -9.3174279697 8.2343844100 -1.3302076771
296 2 -8.7807541587 9.9484598976 0.4778098557
297 2 -8.3613318502 11.5890341613 2.2814695242
298 2 -8.0850043182 13.4094949505 -3.1368885362
299 2 -6.5334183491 9.3001961259 -1.3306577165
300 2 -6.5561137585 11.1547764124 0.4777762645
301 2 -6.4483975996 13.1124781144 2.3333744249
302 2 -9.7969552709 6.3888866872 0.4778884454
303 2 -9.3172983947 8.2345591000 2.2860901052
304 2 -8.7764497069 9.9540465208 -3.1368417662
305 2 -8.1000937915 5.9859309733 -1.3296306971
306 2 -7.7180709949 7.7743697712 0.4778615175
307 2 -6.5339282681 9.3004593943 2.2864359664
308 2 -6.5462400759 11.1642602582 -3.1369107925
309 2 -9.7970778733 6.3891844236 -3.1370888486
310 2 -8.8239120775 2.4916989807 -1.3298182075
311 2 -8.4648612080 4.1059300519 0.4779382431
312 2 -8.1002803226 5.9859818532 2.2853569520
313 2 -7.7184218679 7.7753140555 -3.1370218759
314 2 -6.5807729109 3.7268228477 -1.3302649701
315 2 -6.5711016368 5.5485232010 0.4779990577
316 2 -9.8218932076 -1.0380573791 -1.3301588514
317 2 -9.3494144865 0.7894905755 0.4777154818
318 2 -8.8238236053 2.4915037987 2.2855236606
319 2 -8.4645542426 4.1065330146 -3.1372288625
320 2 -7.7338903539 0.3400927366 -1.3294254766
321 2 -6.5419771405 1.8833291062 0.4773484775
322 2 -6.5803956140 3.7262153012 2.2858692080
323 2 -6.5708865604 5.5503206683 -3.1373488506
324 2 -9.8235308284 -1.0376696892 2.2857721120
325 2 -9.3491078373 0.7894135880 -3.1370577813
326 2 -8.4818545036 -3.3037337465 -1.3302969258
327 2 -8.1156191627 -1.4456272299 0.4787345301
328 2 -7.7346010039 0.3394275201 2.2850220998
329 2 -6.5404886661 1.8817654132 -3.1368054854
330 2 -6.5777865487 -1.8741375952 -1.3281691414
331 2 -9.3598636595 -6.5908955000 -1.3295243421
332 2 -8.8651835590 -4.8923735402 0.4807472869
333 2 -8.4829909975 -3.2984768119 2.2857392786
334 2 -8.1132331974 -1.4447099498 -3.1382675921
335 2 -6.6072132750 -5.5000201099 -1.3345878199
336 2 -6.5844725827 -3.6970923187 0.4855689283
337 2 -6.5718209189 -1.8728856044 2.2835050935
338 2 -9.8351965552 -8.4372061617 0.4768648157
339 2 -9.3945131863 -6.5993225884 2.2854347113
340 2 -8.8613265169 -4.8957133919 -3.1403021430
341 2 -8.1467865099 -8.7836141545 -1.3246445881
342 2 -7.7472417529 -7.0083155929 0.5085599135
343 2 -6.4596170012 -5.5312888432 2.2893459586
344 2 -6.5854188890 -3.6916951655 -3.1454152220
