LAMMPS data file via write_data, version 29 Aug 2024, timestep = 794, units = metal

3656 atoms
2 atom types

-100.1 100.1 xlo xhi
-14.90504265 14.90504265 ylo yhi
-3.615 3.615 zlo zhi
0 0 0 xy xz yz

Masses

1 63.55
2 63.55

Atoms # atomic

1 1 0.558726872617143 13.191239204185676 -3.146853015158283 0 0 0
2 2 -0.8594521822271588 -13.219187428752681 -3.146853021236705 0 0 1
3 1 -0.07862357442245127 7.4787501074778024 -3.1468531548545084 0 0 0
4 1 1.2725212958662695 9.636274668835545 -3.1468530815234477 0 0 0
5 1 0.9520720439202535 11.354635590585326 -1.339353030834131 0 0 0
6 1 0.5587268735319668 13.191239204512874 0.46814698518481257 0 0 0
7 2 -2.090383497662387 -14.74040604368246 2.275647089686849 0 0 0
8 1 2.69648192696431 11.804854064454913 -3.1468530475650556 0 0 0
9 1 2.3036732264859836 13.568790385598748 -1.339353048877084 0 0 0
10 1 4.015460119057224 14.02390697640872 -3.1468530728637605 0 0 0
11 1 1.0048235155577316 3.878460802601504 -3.146853198050479 0 0 0
12 1 0.4751193987483191 5.663274389037104 -1.3393531943706052 0 0 0
13 1 -0.07862357446695967 7.478750107409093 0.468146846267723 0 0 0
14 1 2.1894117384063065 6.154814556941448 -3.1468531988541315 0 0 0
15 1 1.697161251961873 7.907813955788127 -1.3393531382502373 0 0 0
16 1 1.2725212959821874 9.636274669151375 0.4681469184505473 0 0 0
17 1 0.9520720438834616 11.354635590768831 2.275646969041087 0 0 0
18 1 3.508193184634905 8.336109923035563 -3.1468531279861374 0 0 0
19 1 3.10547707223472 10.055782608721758 -1.339353093998051 0 0 0
20 1 2.696481926553716 11.804854064643804 0.4681469520520963 0 0 0
21 1 2.3036732268009956 13.568790386508697 2.2756469508737234 0 0 0
22 1 4.885757566824864 10.505244133444462 -3.14685308695768 0 0 0
23 1 4.460750832136924 12.249958056816334 -1.3393530577666415 0 0 0
24 1 4.015460118958558 14.023906976668071 0.4681469267847019 0 0 0
25 1 6.215281740886638 12.702493975500177 -3.1468530870394296 0 0 0
26 1 5.776009931854645 14.452924345099904 -1.3393530838597458 0 0 0
27 2 -3.7011081718546137 -14.262933063729186 -3.146852904028325 0 0 1
28 1 0.6944186219041484 -1.7787889595488036 -3.146853193971627 0 0 0
29 1 0.20733899592508465 -0.10785704738125723 -1.3393531694204726 0 0 0
30 1 1.9891111256819158 0.4089389078241652 -3.146853211679164 0 0 0
31 1 1.516211488879975 2.1174769294952913 -1.339353200901478 0 0 0
32 1 1.0048235153908394 3.878460802792306 0.4681468005520027 0 0 0
33 1 0.47511939816173765 5.66327438899024 2.2756468052239494 0 0 0
34 1 3.2330671885227673 2.6396789288839333 -3.146853230642441 0 0 0
35 1 2.712505381721442 4.390599852073914 -1.339353221980866 0 0 0
36 1 2.189411738355716 6.154814556876991 0.46814680111241763 0 0 0
37 1 1.6971612523175708 7.9078139560428635 2.2756468615330365 0 0 0
38 1 4.449893963781889 4.871293633071682 -3.1468532329058205 0 0 0
39 1 3.9596746143125614 6.610217666622473 -1.3393531819068623 0 0 0
40 1 3.5081931846688406 8.33610992293062 0.4681468720898044 0 0 0
41 1 3.105477072394933 10.055782609208462 2.2756469059178475 0 0 0
42 1 5.7494385243352895 7.051973042024192 -3.146853157566863 0 0 0
43 1 5.312675929849746 8.774744401629055 -1.3393531136276005 0 0 0
44 1 4.885757567261749 10.505244133534196 0.4681469125430488 0 0 0
45 1 4.460750832642134 12.249958056879168 2.275646942438667 0 0 0
46 1 7.094993488938172 9.220087643494969 -3.1468531246298754 0 0 0
47 1 6.657534022280004 10.955864478316633 -1.3393530967354368 0 0 0
48 1 6.215281740662348 12.702493975209313 0.4681469125919592 0 0 0
49 1 5.776009931610858 14.452924344895584 2.2756469161264383 0 0 0
50 1 8.424452738348464 11.402697183176057 -3.1468531047522625 0 0 0
51 1 7.984893090607628 13.143232919497512 -1.3393530745698803 0 0 0
52 2 -0.9637619433077873 -9.394480037983394 -3.1468530921710265 0 0 1
53 1 9.761669118471985 13.57929303384857 -3.1468530630794143 0 0 0
54 1 0.4092121176358319 -7.317222594374746 -3.1468531519052747 0 0 0
55 1 1.6793406290028798 -5.182809288584343 -3.1468532178195474 0 0 0
56 1 1.2049752430048102 -3.4437369963703315 -1.339353201210225 0 0 0
57 1 0.6944186215573893 -1.7787889596781863 0.4681468044841792 0 0 0
58 1 0.20733899599970584 -0.10785704704335508 2.2756468305682938 0 0 0
59 1 2.9389837283548275 -3.021543389801561 -3.1468532424292253 0 0 0
60 1 2.4686649276515595 -1.288263593635591 -1.3393532301178768 0 0 0
61 1 1.9891111258191927 0.4089389077839307 0.46814678914250113 0 0 0
62 1 1.5162114901715427 2.1174769288680064 2.275646799066865 0 0 0
63 1 4.208546436005335 -0.8445460770172293 -3.1468532642209373 0 0 0
64 1 3.7357014860890416 0.8989625764386115 -1.3393532451184733 0 0 0
65 1 3.2330671886311677 2.639678928615128 0.4681467691957136 0 0 0
66 1 2.712505382063938 4.390599852120948 2.2756467780576255 0 0 0
67 1 5.4540201042710805 1.3621925688581076 -3.146853281984426 0 0 0
68 1 4.956349321141502 3.1215293067955745 -1.3393532598249003 0 0 0
69 1 4.44989396407793 4.871293633115053 0.46814676716622433 0 0 0
70 1 3.9596746145978017 6.610217666649545 2.2756468185196 0 0 0
71 1 6.691228718417605 3.5720806631891318 -3.1468532743102022 0 0 0
72 1 6.211594839231424 5.3204363205351495 -1.3393532280852405 0 0 0
73 1 5.74943852451824 7.051973041511802 0.4681468424099592 0 0 0
74 1 5.312675930130112 8.774744401661922 2.275646886543869 0 0 0
75 1 7.981025230217469 5.75317091932722 -3.1468532276150176 0 0 0
76 1 7.534288036838078 7.488772120815325 -1.339353164648431 0 0 0
77 1 7.094993489149985 9.220087643658237 0.4681468754572715 0 0 0
78 1 6.657534022095149 10.955864478339636 2.275646902857138 0 0 0
79 1 9.307146049893419 7.923521780148098 -3.1468531628100695 0 0 0
80 1 8.866514177970416 9.662736554654638 -1.339353118715164 0 0 0
81 1 8.424452738158578 11.402697183034787 0.46814689498883816 0 0 0
82 1 7.984893090384958 13.143232919635336 2.2756469254844127 0 0 0
83 1 10.633097196423378 10.100385919750002 -3.146853099498498 0 0 0
84 1 10.194467353869058 11.841492513406072 -1.33935308347085 0 0 0
85 1 9.761669118579206 13.579293034088712 0.4681469369547607 0 0 0
86 1 11.965409523253456 12.275786282389573 -3.146853045896682 0 0 0
87 1 11.536605560677401 14.014700567154426 -1.3393530300547367 0 0 0
88 1 13.305790626029662 14.451097989918614 -3.1468529806138688 0 0 0
89 1 0.9326113081870915 -11.015621289822343 -3.1468530749594814 0 0 0
90 1 0.7156998782939183 -9.20973810780257 -1.3393530971405 0 0 0
91 1 0.40921211792706913 -7.317222594582255 0.4681468352495704 0 0 0
92 1 2.427532272535089 -8.82373855766873 -3.1468531456864106 0 0 0
93 1 2.077321301279113 -7.005499436420837 -1.3393531821761455 0 0 0
94 1 1.6793406299743623 -5.182809288678174 0.468146785814638 0 0 0
95 1 1.2049752387041934 -3.443737004635585 2.2756467988988938 0 0 0
96 1 3.7804429653201765 -6.608250877561963 -3.1468532368369764 0 0 0
97 1 3.375067842802906 -4.806241309551053 -1.3393532542692042 0 0 0
98 1 2.938983728719805 -3.0215433899195556 0.46814675669551914 0 0 0
99 1 2.468664928593526 -1.2882635922399857 2.2756467701122083 0 0 0
100 1 5.086527720114745 -4.395989280344319 -3.1468532968031164 0 0 0
101 1 4.6570722712839085 -2.611522538851659 -1.3393532772251515 0 0 0
102 1 4.208546436203534 -0.844546076582894 0.4681467362375224 0 0 0
103 1 3.7357014853683097 0.8989625765093976 2.2756467545149106 0 0 0
104 1 6.375495791846234 -2.186943462703704 -3.1468533010763657 0 0 0
105 1 5.92715055048231 -0.40875796714034784 -1.3393533018781199 0 0 0
106 1 5.454020104106519 1.3621925686465968 0.46814671769929983 0 0 0
107 1 4.956349321047128 3.1215293067712384 2.275646740291144 0 0 0
108 1 7.641658072164404 0.029525546618089038 -3.1468533270181682 0 0 0
109 1 7.172296100980645 1.8063876792316211 -1.339353311640153 0 0 0
110 1 6.691228718510644 3.5720806631979958 0.46814672575622174 0 0 0
111 1 6.2115948392913225 5.320436320082996 2.275646771867095 0 0 0
112 1 8.901695441982895 2.2408558679244077 -3.1468533185850425 0 0 0
113 1 8.438420349800296 4.004358705005073 -1.339353282967455 0 0 0
114 1 7.981025229991161 5.7531709192378155 0.468146772192331 0 0 0
115 1 7.534288036799239 7.48877212102091 2.275646835097466 0 0 0
116 1 10.193108113904358 4.430484888393332 -3.146853287371282 0 0 0
117 1 9.748295137735411 6.180839432131256 -1.3393532200093805 0 0 0
118 1 9.307146049763816 7.923521780082927 0.4681468371903879 0 0 0
119 1 8.866514177596073 9.662736554634945 2.2756468812578703 0 0 0
120 1 11.511203814618113 6.608609576690567 -3.14685319191978 0 0 0
121 1 11.07258096054342 8.356164879331649 -1.339353146333009 0 0 0
122 1 10.633097196393464 10.100385919489765 0.4681469006115571 0 0 0
123 1 10.194467353643745 11.841492513279126 2.2756469168420423 0 0 0
124 1 12.83504168417474 8.787232587286274 -3.1468531089953413 0 0 0
125 1 12.398979170150525 10.533520120690289 -1.3393530595179692 0 0 0
126 1 11.965409523593436 12.27578628234407 0.46814695434393394 0 0 0
127 1 11.536605560910331 14.014700567098286 2.275646970243409 0 0 0
128 1 14.164263449949232 10.964872274549384 -3.1468530124444296 0 0 0
129 1 13.73385912668816 12.709014791295788 -1.3393529875616255 0 0 0
130 1 13.305790626167607 14.451097989839463 0.46814701952197996 0 0 0
131 1 15.498213048987381 13.143114575667239 -3.1468529254134667 0 0 0
132 2 -0.8947538045485004 -11.353468273259256 2.2756469631003675 0 0 0
133 1 0.23244427767700415 -14.863930871372734 -1.3393530768693458 0 1 0
134 1 1.8370645279629514 -14.3989008542369 -3.1468530716677803 0 0 0
135 1 1.3014676224685928 -12.674497388676357 -1.3393530735039905 0 0 0
136 1 0.9326113084298981 -11.015621289961176 0.46814692546140196 0 0 0
137 1 0.7156998705164739 -9.209738107963672 2.275646902702499 0 0 0
138 1 3.1652113213101103 -12.275359297048215 -3.146853111378263 0 0 0
139 1 2.790182872368618 -10.576258884495049 -1.3393531284583384 0 0 0
140 1 2.4275322714939307 -8.823738557807971 0.46814685429127223 0 0 0
141 1 2.0773213059232205 -7.0054994349740465 2.2756468177248332 0 0 0
142 1 4.577789083966124 -10.13680058625922 -3.1468531552896315 0 0 0
143 1 4.178137909794842 -8.388896817621752 -1.3393531912833139 0 0 0
144 1 3.7804429647276123 -6.608250876892566 0.46814676319054355 0 0 0
145 1 3.3750678422373426 -4.806241309973284 2.2756467451635594 0 0 0
146 1 5.926095645462098 -7.945512034193908 -3.1468532318133 0 0 0
147 1 5.5071774384790615 -6.178210359873278 -1.3393532931565926 0 0 0
148 1 5.086527719339969 -4.395989280231602 0.46814670272934167 0 0 0
149 1 4.657072271655451 -2.6115225384558816 2.275646722800135 0 0 0
150 1 7.241545598290159 -5.737649271737435 -3.1468533134873042 0 0 0
151 1 6.810704684879326 -3.965454575692135 -1.3393533061987493 0 0 0
152 1 6.375495791377233 -2.186943462509772 0.4681466988212531 0 0 0
153 1 5.927150550454172 -0.4087579676809323 2.275646697736368 0 0 0
154 1 8.539596018367305 -3.5247821844878455 -3.14685330970495 0 0 0
155 1 8.095996169293812 -1.749785534839436 -1.3393533245858606 0 0 0
156 1 7.6416580719922536 0.029525546517987777 0.4681466729281842 0 0 0
157 1 7.172296101045347 1.806387679307262 2.275646688032825 0 0 0
158 1 9.820386031732312 -1.3075262008656772 -3.146853329507595 0 0 0
159 1 9.363898221345977 0.467787202743688 -1.3393533359881857 0 0 0
160 1 8.901695442007437 2.240855868294327 0.46814668180777225 0 0 0
161 1 8.438420349772528 4.0043587048270854 2.275646716785603 0 0 0
162 1 11.097159041098422 0.90418405178462 -3.1468533221235786 0 0 0
163 1 10.64328255904286 2.6708575702356487 -1.3393533063401042 0 0 0
164 1 10.193108113945229 4.4304848882734955 0.4681467127097494 0 0 0
165 1 9.748295137305902 6.180839432238136 2.2756467800357902 0 0 0
166 1 12.3932349282872 3.0999672136972887 -3.146853270753992 0 0 0
167 1 11.950597720247842 4.856741859236431 -1.3393532422099637 0 0 0
168 1 11.511203814599867 6.608609576752519 0.4681468083197494 0 0 0
169 1 11.072580960302844 8.356164879003058 2.2756468537584964 0 0 0
170 1 13.708621927841023 5.285042680006226 -3.1468531718285324 0 0 0
171 1 13.271598718597886 7.037517513264762 -1.3393531375477066 0 0 0
172 1 12.835041684250726 8.787232587468585 0.4681468908035755 0 0 0
173 1 12.398979170113478 10.533520120723784 2.275646940519023 0 0 0
174 1 15.031355058624882 7.4674941871454745 -3.1468530838831774 0 0 0
175 1 14.597015868327077 9.217622670806795 -1.339353052507292 0 0 0
176 1 14.164263450044587 10.964872274623849 0.4681469876021221 0 0 0
177 1 13.73385912668138 12.709014791781334 2.2756470124086667 0 0 0
178 1 16.358707956852342 9.648554182319538 -3.146853013952995 0 0 0
179 1 15.927796111185955 11.396693862917976 -1.3393529634590104 0 0 0
180 1 15.498213048878654 13.143114575612246 0.4681470749120017 0 0 0
181 2 -0.8594521810712479 -13.219187428743622 0.46814697594849325 0 0 0
182 1 17.68880924716028 11.830110439729387 -3.146852912916099 0 0 0
183 1 17.258466901533183 13.578745257926867 -1.3393528846350682 0 0 0
184 1 19.015307553245606 14.01590910229987 -3.1468528552710597 0 0 0
185 1 0.23244428017861196 -14.863930870847339 2.275646923152601 0 1 0
186 1 1.8370645275031023 -14.398900854396821 0.46814692896417 0 0 0
187 1 1.3014676232069604 -12.674497389758471 2.2756469269345643 0 0 0
188 1 3.571460866732906 -14.015846535239906 -1.3393530947671393 0 0 0
189 1 3.1652113216904496 -12.275359297231745 0.4681468889246511 0 0 0
190 1 2.7901828725442783 -10.57625888404182 2.2756468719632745 0 0 0
191 1 5.359135639424196 -13.611802890579982 -3.1468530965668564 0 0 0
192 1 4.968528116596815 -11.874666440337837 -1.3393531242738828 0 0 0
193 1 4.577789084349334 -10.136800586510462 0.46814684516049876 0 0 0
194 1 4.1781379102056775 -8.388896817307515 2.2756468094042663 0 0 0
195 1 6.745215507678537 -11.449788856212503 -3.146853128629988 0 0 0
196 1 6.340093420805772 -9.701373783126511 -1.3393531725256522 0 0 0
197 1 5.9260956460556855 -7.945512034649343 0.46814676804281535 0 0 0
198 1 5.50717743803753 -6.1782103606756404 2.27564670723139 0 0 0
199 1 8.092736441307807 -9.260900375412819 -3.1468531784482754 0 0 0
200 1 7.6696960450534135 -7.502364958911387 -1.3393532494182563 0 0 0
201 1 7.241545599003729 -5.737649272012364 0.4681466868986095 0 0 0
202 1 6.8107046849980435 -3.965454575522969 2.2756466941213733 0 0 0
203 1 9.411661408888008 -7.057555817006388 -3.1468532445982396 0 0 0
204 1 8.977587206950403 -5.293774346168041 -1.3393532850469463 0 0 0
205 1 8.539596018798619 -3.5247821846660177 0.46814669056906616 0 0 0
206 1 8.095996169356852 -1.7497855346364943 2.2756466754407145 0 0 0
207 1 10.713851996156478 -4.84771080703697 -3.1468532621844263 0 0 0
208 1 10.270052986052647 -3.079948164434887 -1.3393533134914588 0 0 0
209 1 9.82038603169309 -1.3075262008733723 0.46814667053133446 0 0 0
210 1 9.363898221794486 0.46778720296777365 2.275646664021795 0 0 0
211 1 12.003116165852958 -2.6344467982636512 -3.1468532923581587 0 0 0
212 1 11.551419753161085 -0.8654583880546731 -1.339353317089452 0 0 0
213 1 11.097159041187709 0.9041840519121944 0.46814667729802806 0 0 0
214 1 10.64328255874176 2.6708575700111776 2.2756466936980426 0 0 0
215 1 13.290085768714135 -0.42538162191038076 -3.1468532792907427 0 0 0
216 1 12.840142049742965 1.3387307700091835 -1.3393532967099027 0 0 0
217 1 12.393234928106764 3.0999672134556757 0.4681467291114109 0 0 0
218 1 11.95059771982784 4.856741858972251 2.2756467576910104 0 0 0
219 1 14.589827323031514 1.7724822657684225 -3.14685323970279 0 0 0
220 1 14.147573740596783 3.5300176546747952 -1.3393532181032688 0 0 0
221 1 13.70862192791219 5.285042680144828 0.4681468278429488 0 0 0
222 1 13.27159871903504 7.037517513365172 2.275646862463525 0 0 0
223 1 15.903937877446552 3.9615016473599898 -3.1468531400743753 0 0 0
224 1 15.466855701428273 5.715266773416376 -1.339353098486507 0 0 0
225 1 15.031355058603125 7.4674941870802645 0.4681469163047489 0 0 0
226 1 14.597015868436387 9.217622671463905 2.2756469474127825 0 0 0
227 1 17.225479333934288 6.146930723430605 -3.146853050830665 0 0 0
228 1 16.791283784619637 7.898515081053757 -1.3393530381912804 0 0 0
229 1 16.358707956870248 9.648554182558785 0.4681469860676004 0 0 0
230 1 15.92779611076567 11.396693862603945 2.275647036292962 0 0 0
231 1 18.55117906575674 8.330799174358182 -3.1468529632818334 0 0 0
232 1 18.11943738854825 10.080905621672775 -1.3393529352310096 0 0 0
233 1 17.68880924719825 11.830110439625605 0.4681470866787474 0 0 0
234 1 17.258466901279846 13.578745257945934 2.275647115215504 0 0 0
235 1 19.8786136930366 10.515025396701647 -3.146852867753055 0 0 0
236 1 19.447193253218174 12.265376146287542 -1.3393528644596258 0 0 0
237 1 19.0153075529401 14.01590910231903 0.4681471446408752 0 0 0
238 1 21.20324918379508 12.702294873833663 -3.14685281492602 0 0 0
239 1 20.769570276785657 14.454337146505337 -1.3393528159621277 0 0 0
240 2 -2.0903834952241027 -14.74040604632789 -1.339352910045369 0 0 0
241 1 3.5714608663791694 -14.015846535731876 2.2756469052951345 0 0 0
242 1 5.359135639023762 -13.611802890626436 0.46814690359770583 0 0 0
243 1 4.968528116272097 -11.874666440843223 2.2756468756876655 0 0 0
244 1 7.557309079435527 14.881832456652239 -3.146853081255998 0 0 0
245 1 7.146865154844534 -13.191192871253499 -1.3393530995078546 0 0 0
246 1 6.745215507222426 -11.449788855960437 0.4681468711648592 0 0 0
247 1 6.340093421184491 -9.701373783762337 2.275646827225371 0 0 0
248 1 8.923361990217686 -12.75706244008441 -3.146853074411344 0 0 0
249 1 8.509840086206921 -11.012859059136883 -1.3393531270987804 0 0 0
250 1 8.092736441069405 -9.26090037506864 0.46814682137434743 0 0 0
251 1 7.6696960453277825 -7.5023649586127075 2.2756467501579243 0 0 0
252 1 10.267708065371409 -10.569458250450797 -3.1468530938289083 0 0 0
253 1 9.841687577109909 -8.816408910794621 -1.3393531696946062 0 0 0
254 1 9.411661408566715 -7.05755581687629 0.4681467553089174 0 0 0
255 1 8.977587207141639 -5.293774345936402 2.275646714686994 0 0 0
256 1 11.588832992224397 -8.369494518932305 -3.1468531290596022 0 0 0
257 1 11.15314540259233 -6.61088653291586 -1.3393532143639562 0 0 0
258 1 10.71385199613647 -4.847710806861128 0.4681467381823133 0 0 0
259 1 10.270052986001545 -3.07994816474673 2.27564668644773 0 0 0
260 1 12.894492837408677 -6.163114388577204 -3.1468531616186097 0 0 0
261 1 12.450808442265853 -4.400637328530463 -1.3393532329870468 0 0 0
262 1 12.003116166004006 -2.6344467982476534 0.46814670734959957 0 0 0
263 1 11.551419753272725 -0.8654583880972968 2.2756466831399034 0 0 0
264 1 14.189776406756607 -3.954067158484179 -3.1468531929659993 0 0 0
265 1 13.740670527297297 -2.1902800441267054 -1.3393532471025473 0 0 0
266 1 13.290085769145563 -0.42538162191448237 0.46814672040843014 0 0 0
267 1 12.840142049190092 1.3387307700566904 2.275646703421733 0 0 0
268 1 15.483449141097779 -1.7481590461358323 -3.14685320511911 0 0 0
269 1 15.03551260281121 0.01278985248333342 -1.3393532258547494 0 0 0
270 1 14.589827322971189 1.7724822656274757 0.4681467602309045 0 0 0
271 1 14.147573740751525 3.530017654601915 2.2756467821143285 0 0 0
272 1 16.785884792037663 0.44976551252767294 -3.1468531609931616 0 0 0
273 1 16.343447681632 2.2063329891411687 -1.3393531585942418 0 0 0
274 1 15.903937877618944 3.9615016477297704 0.4681468602897775 0 0 0
275 1 15.466855701120238 5.715266772949969 2.2756469013787477 0 0 0
276 1 18.09920056971572 2.6406569570845466 -3.1468530903097314 0 0 0
277 1 17.661344345420872 4.394240886594188 -1.3393530682209307 0 0 0
278 1 17.2254793339075 6.1469307234066 0.4681469493471496 0 0 0
279 1 16.79128378452849 7.898515080588963 2.2756469616532873 0 0 0
280 1 19.419379947054907 4.827948837241463 -3.146852995994656 0 0 0
281 1 18.984444435181203 6.579764309966569 -1.3393529899161107 0 0 0
282 1 18.55117906571465 8.330799174320523 0.46814703637373856 0 0 0
283 1 18.119437388816834 10.080905621515916 2.275647064514764 0 0 0
284 1 20.743370892702117 7.013721158905861 -3.1468529217760643 0 0 0
285 1 20.31045845618428 8.764544465021556 -1.3393528869095617 0 0 0
286 1 19.878613693115412 10.515025396752621 0.46814713235573147 0 0 0
287 1 19.447193253040382 12.265376146596095 2.275647135346062 0 0 0
288 1 22.068638885072943 9.199772900366694 -3.146852836907199 0 0 0
289 1 21.63601893344439 10.950851216588168 -1.3393528287366199 0 0 0
290 1 21.20324918369775 12.702294873358744 0.4681471849519405 0 0 0
291 1 20.7695702772467 14.45433714686216 2.2756471842557153 0 0 0
292 1 23.391740115014443 11.388103452501001 -3.1468527866794607 0 0 0
293 1 22.957442904242896 13.140501287371594 -1.3393527716604938 0 0 0
294 2 -2.7626076240483286 -11.075120786954486 -3.1468529683363236 0 0 1
295 1 24.71026666967333 13.579603182114893 -3.1468527413183662 0 0 0
296 1 7.557309079666709 14.881832456700897 0.46814691873616976 0 0 0
297 1 7.14686515435622 -13.191192871649795 2.2756469006946625 0 0 0
298 1 9.338619923182165 -14.494987382097545 -1.3393530683269699 0 0 0
299 1 8.923361990554369 -12.757062439991245 0.4681469256526793 0 0 0
300 1 8.509840086318903 -11.012859058923256 2.2756468730332844 0 0 0
301 1 11.112547808765697 -14.0571731597745 -3.146853031983246 0 0 0
302 1 10.690633616038568 -12.316096919150914 -1.3393530504982252 0 0 0
303 1 10.26770806569482 -10.569458250253637 0.4681469064726617 0 0 0
304 1 9.841687577326212 -8.816408910695149 2.275646830405426 0 0 0
305 1 12.45113474374908 -11.872104273792859 -3.146852997967279 0 0 0
306 1 12.021378556541265 -10.123247874785076 -1.339353055685037 0 0 0
307 1 11.588832992372033 -8.369494519047548 0.4681468707769707 0 0 0
308 1 11.153145402802991 -6.610886533072241 2.2756467859338385 0 0 0
309 1 13.772132308923716 -9.676218355450311 -3.146853016830076 0 0 0
310 1 13.334776412720657 -7.921625109878543 -1.3393530877082551 0 0 0
311 1 12.894492837535353 -6.163114388637441 0.4681468385034648 0 0 0
312 1 12.450808442219554 -4.400637328518348 2.27564676705797 0 0 0
313 1 15.079935525441954 -7.47393394201875 -3.146853036757909 0 0 0
314 1 14.636286292963476 -5.715470195035872 -1.3393531150414881 0 0 0
315 1 14.18977640675277 -3.9540671583716662 0.4681468069298895 0 0 0
316 1 13.740670527295066 -2.1902800439649344 2.275646752792375 0 0 0
317 1 16.37939321866834 -5.269084463156545 -3.146853077077314 0 0 0
318 1 15.93190982500468 -3.509149514856025 -1.3393531448624143 0 0 0
319 1 15.483449141183613 -1.7481590463313186 0.4681467947436847 0 0 0
320 1 15.035512603118832 0.012789852815760838 2.2756467738055974 0 0 0
321 1 17.677599659753 -3.066330608457518 -3.1468531002190203 0 0 0
322 1 17.230943442179154 -1.3079717114341136 -1.3393531489427055 0 0 0
323 1 16.785884791949357 0.4497655123912452 0.46814683892083614 0 0 0
324 1 16.343447681893963 2.2063329892437995 2.2756468414559077 0 0 0
325 1 18.98201069096774 -0.8692553476647049 -3.146853103871398 0 0 0
326 1 18.539410697370485 0.8861681010415854 -1.3393531006638375 0 0 0
327 1 18.09920056965639 2.640656956786307 0.4681469096199194 0 0 0
328 1 17.661344345593392 4.39424088681019 2.275646931731738 0 0 0
329 1 20.294778935073737 1.3223497807833215 -3.14685304958799 0 0 0
330 1 19.85610486304023 3.075478278193854 -1.3393530359797572 0 0 0
331 1 19.419379947096118 4.827948837528803 0.468147003967506 0 0 0
332 1 18.984444435259178 6.579764310161545 2.275647010092873 0 0 0
333 1 21.613601631910598 3.510731424141367 -3.146852980172773 0 0 0
334 1 21.17769976776573 5.2624615662655625 -1.339352949337685 0 0 0
335 1 20.743370892552647 7.0137211587530555 0.4681470783595373 0 0 0
336 1 20.31045845639241 8.764544465093861 2.2756471133074547 0 0 0
337 1 22.93590227740941 5.697736932181789 -3.1468529137296173 0 0 0
338 1 22.50177681176345 7.448807647811309 -1.3393528592211539 0 0 0
339 1 22.068638885114467 9.199772900458205 0.4681471635416325 0 0 0
340 1 21.63601893359582 10.950851216480428 2.2756471711717974 0 0 0
341 1 24.259290363615065 7.884972942727055 -3.1468528310168784 0 0 0
342 1 23.82549654097828 9.636334532457637 -1.3393528105193955 0 0 0
343 1 23.391740115050453 11.388103452480687 0.4681472133550186 0 0 0
344 1 22.957442904237496 13.140501287151812 2.2756472282749316 0 0 0
345 1 25.581039315523398 10.073979477764409 -3.1468527926199843 0 0 0
346 1 25.1460343102776 11.826428487025288 -1.3393527702012842 0 0 0
347 1 24.71026666974545 13.579603182226043 0.4681472583306865 0 0 0
348 1 26.899226988626594 12.265478948217266 -3.146852767043269 0 0 0
349 1 26.462178973326928 14.019242847756592 -1.3393527389944264 0 0 0
350 1 28.2135803721863 14.459121822080716 -3.1468527632891683 0 0 0
351 1 9.338619923091457 -14.49498738204736 2.2756469316974677 0 0 0
352 1 11.112547808585816 -14.05717315951978 0.4681469678223465 0 0 0
353 1 10.69063361618629 -12.316096919588539 2.2756469493576503 0 0 0
354 1 12.878811182676529 -13.616789076637836 -1.339352979944059 0 0 0
355 1 12.451134743537793 -11.87210427365493 0.4681470018269428 0 0 0
356 1 12.021378556421439 -10.123247875191112 2.2756469440609752 0 0 0
357 1 14.638864703701373 -13.175238378887611 -3.146852940572426 0 0 0
358 1 14.20676172925873 -11.427205029084785 -1.339352968522052 0 0 0
359 1 13.772132308838323 -9.676218355475207 0.4681469830870063 0 0 0
360 1 13.334776412752348 -7.921625109439058 2.275646912257336 0 0 0
361 1 15.958912216934408 -10.9824044107958 -3.1468529297781056 0 0 0
362 1 15.52079270635464 -9.229465795546712 -1.3393529725465971 0 0 0
363 1 15.079935525171479 -7.4739339420933435 0.46814696278880774 0 0 0
364 1 14.63628629328825 -5.7154701951913385 2.2756468851668643 0 0 0
365 1 17.268128120558472 -8.783601838426552 -3.146852955712312 0 0 0
366 1 16.824954975234064 -7.027297543133528 -1.3393530162822598 0 0 0
367 1 16.37939321862983 -5.269084462953854 0.46814692321937695 0 0 0
368 1 15.931909824623645 -3.509149514871826 2.2756468549587203 0 0 0
369 1 18.57061167338955 -6.5822841344586855 -3.146853005955795 0 0 0
370 1 18.124546048844962 -4.824625807494693 -1.3393530568087828 0 0 0
371 1 17.677599659590655 -3.066330608439854 0.46814690015640226 0 0 0
372 1 17.230943442580212 -1.3079717118995156 2.275646850715911 0 0 0
373 1 19.872045329767147 -4.382233331396732 -3.1468530248383684 0 0 0
374 1 19.42652105437338 -2.625489216153051 -1.3393530642368676 0 0 0
375 1 18.982010690748652 -0.8692553478898013 0.4681468963123428 0 0 0
376 1 18.53941069717125 0.886168101029261 2.27564689921711 0 0 0
377 1 21.177975684496175 -2.1862199893466485 -3.146853033759197 0 0 0
378 1 20.735469795428457 -0.4315284823257972 -1.339353058385017 0 0 0
379 1 20.2947789349017 1.3223497810670093 0.46814695029336445 0 0 0
380 1 19.8561048629377 3.0754782782738896 2.2756469640723402 0 0 0
381 1 22.49039646270036 0.005581892954758416 -3.1468530096396092 0 0 0
382 1 22.051158173710135 1.7584743992701615 -1.3393530039062596 0 0 0
383 1 21.613601631907045 3.5107314242921053 0.46814702022283294 0 0 0
384 1 21.17769976785604 5.262461566016446 2.275647050798264 0 0 0
385 1 23.80801885531382 2.1946415260407246 -3.1468529643722096 0 0 0
386 1 23.37127759659589 3.94639396644793 -1.3393529431661693 0 0 0
387 1 22.935902277697508 5.697736932246018 0.46814708693739215 0 0 0
388 1 22.501776811891006 7.448807647627936 2.2756471408029686 0 0 0
389 1 25.128772991086805 4.38249640001281 -3.146852914514901 0 0 0
390 1 24.693604542834635 6.133771049985663 -1.339352875346992 0 0 0
391 1 24.25929036386441 7.884972942508808 0.4681471691384141 0 0 0
392 1 23.825496541239374 9.636334532140706 2.275647189680638 0 0 0
393 1 26.45053367319936 6.57053577328862 -3.1468528554976816 0 0 0
394 1 26.015730409901636 8.322089279495634 -1.3393528187527057 0 0 0
395 1 25.581039315416604 10.07397947793101 0.468147207523864 0 0 0
396 1 25.146034309927643 11.826428486962 2.2756472297343797 0 0 0
397 1 27.771090464895394 8.759978290138756 -3.1468528188084206 0 0 0
398 1 27.335424909904404 10.512427111922824 -1.3393527834214645 0 0 0
399 1 26.89922698854018 12.265478948335412 0.4681472327028203 0 0 0
400 1 26.4621789729659 14.019242847406536 2.2756472609227596 0 0 0
401 1 29.088887086797314 10.951410689572382 -3.1468528098394395 0 0 0
402 1 28.651652107697004 12.704951094251973 -1.3393527845656836 0 0 0
403 1 28.213580372023387 14.45912182184709 0.4681472369206554 0 0 0
404 1 30.40361842293686 13.144599437389425 -3.1468528199077497 0 0 0
405 2 -3.203922186596259 -12.583106179146718 2.2756470481110394 0 0 0
406 1 12.878811182789022 -13.616789076570694 2.2756470203162946 0 0 0
407 1 15.068996897609466 14.888713013554705 -1.3393529321160158 0 0 0
408 1 14.638864703811109 -13.175238379060081 0.4681470594750281 0 0 0
409 1 14.206761728523475 -11.427205028929272 2.2756470315766815 0 0 0
410 1 16.82731188925871 -14.482676241976776 -3.146852882478208 0 0 0
411 1 16.394337895141618 -12.733265786730652 -1.3393528972903816 0 0 0
412 1 15.958912217128983 -10.982404411010144 0.46814707040844944 0 0 0
413 1 15.520792706376781 -9.229465795083428 2.275647027581188 0 0 0
414 1 18.146633279303515 -12.29121031053761 -3.146852869198666 0 0 0
415 1 17.708707470674113 -10.538142972101195 -1.3393529109205176 0 0 0
416 1 17.26812812045847 -8.783601838553542 0.4681470441408335 0 0 0
417 1 16.824954975391762 -7.027297543021798 2.2756469839827864 0 0 0
418 1 19.457130771019635 -10.094627045442067 -3.146852890736942 0 0 0
419 1 19.014967380432893 -8.338981880765271 -1.3393529434013702 0 0 0
420 1 18.570611673413083 -6.582284134428603 0.46814699450748226 0 0 0
421 1 18.124546048923023 -4.824625807306953 2.2756469433024544 0 0 0
422 1 20.762098638430246 -7.895774395250309 -3.146852921781406 0 0 0
423 1 20.31754402347434 -6.1391092380646235 -1.339352981657781 0 0 0
424 1 19.872045330089165 -4.382233331439524 0.46814697534893346 0 0 0
425 1 19.426521054386455 -2.6254892161889867 2.275646935723763 0 0 0
426 1 22.06607977028878 -5.697679696385629 -3.1468529486300034 0 0 0
427 1 21.62176564464515 -3.941667713446817 -1.339353009602027 0 0 0
428 1 21.177975684458744 -2.1862199893935905 0.4681469659246495 0 0 0
429 1 20.735469795625406 -0.4315284824257315 2.275646941834161 0 0 0
430 1 23.37332867946286 -3.5025170431036727 -3.146852968742981 0 0 0
431 1 22.931218499381984 -1.7480644674821217 -1.3393530034026169 0 0 0
432 1 22.490396462670333 0.005581892882277728 0.4681469903146229 0 0 0
433 1 22.05115817363361 1.758474399042024 2.275646996390862 0 0 0
434 1 24.68562980699552 -1.3106250579594736 -3.146852967356568 0 0 0