# LAMMPS data file Sigma = 17, inclination = 0.000000
#LAMMPS data file
3710 atoms
2 atom types
-100.1000000000 100.1000000000 xlo xhi
-14.9050426500 14.9050426500 ylo yhi
-3.6150000000 3.6150000000 zlo zhi
0.0 0.0 0.0 xy xz yz

Atoms # atomic

1 1 0.4383827906 12.8459279467 -1.8075000000
2 1 -0.0000003986 14.6128747167 0.0000000000
3 1 -0.0000001993 7.1060516342 -1.8075000000
4 1 1.3151491689 9.3262153604 -1.8075000000
5 1 0.8767659797 11.0842959501 0.0000000000
6 1 0.4383827906 12.8459279467 1.8075000000
7 1 -0.0000003986 14.6128747167 3.6150000000
8 1 2.6302985370 11.5501576033 -1.8075000000
9 1 2.1919153479 13.3135537391 0.0000000000
10 1 3.9454479052 13.7763771295 -1.8075000000
11 1 0.8767661790 3.6033378133 -1.8075000000
12 1 0.4383829899 5.3540388974 0.0000000000
13 1 -0.0000001993 7.1060516342 1.8075000000
14 1 2.1919155472 5.8171213000 -1.8075000000
15 1 1.7535323580 7.5706809289 0.0000000000
16 1 1.3151491689 9.3262153604 1.8075000000
17 1 0.8767659797 11.0842959501 3.6150000000
18 1 3.5070649153 8.0333757615 -1.8075000000
19 1 3.0686817262 9.7903848296 0.0000000000
20 1 2.6302985370 11.5501576033 1.8075000000
21 1 2.1919153479 13.3135537391 3.6150000000
22 1 4.8222142835 10.2518401828 -1.8075000000
23 1 4.3838310943 12.0124632077 0.0000000000
24 1 3.9454479052 13.7763771295 1.8075000000
25 1 6.1373636516 12.4715009648 -1.8075000000
26 1 5.6989804625 14.2351833018 0.0000000000
27 1 7.4525130197 14.6907867621 -1.8075000000
28 1 0.4383831891 -2.1020084057 -1.8075000000
29 1 0.0000000000 -0.3557887174 0.0000000000
30 1 1.7535325573 0.1057286778 -1.8075000000
31 1 1.3151493681 1.8538900206 0.0000000000
32 1 0.8767661790 3.6033378133 1.8075000000
33 1 0.4383829899 5.3540388974 3.6150000000
34 1 3.0686819254 2.3148191406 -1.8075000000
35 1 2.6302987363 4.0652200367 0.0000000000
36 1 2.1919155472 5.8171213000 1.8075000000
37 1 1.7535323580 7.5706809289 3.6150000000
38 1 4.3838312936 4.5256188368 -1.8075000000
39 1 3.9454481044 6.2785706335 0.0000000000
40 1 3.5070649153 8.0333757615 1.8075000000
41 1 3.0686817262 9.7903848296 3.6150000000
42 1 5.6989806617 6.7381898793 -1.8075000000
43 1 5.2605974726 8.4939007281 0.0000000000
44 1 4.8222142835 10.2518401828 1.8075000000
45 1 4.3838310943 12.0124632077 3.6150000000
46 1 7.0141300299 8.9522198276 -1.8075000000
47 1 6.5757468407 10.7106385817 0.0000000000
48 1 6.1373636516 12.4715009648 1.8075000000
49 1 5.6989804625 14.2351833018 3.6150000000
50 1 8.3292793980 11.1670028974 -1.8075000000
51 1 7.8908962089 12.9277179923 0.0000000000
52 1 7.4525130197 14.6907867621 1.8075000000
53 1 9.6444287662 13.3815713370 -1.8075000000
54 1 0.0000001993 -7.7917694981 -1.8075000000
55 1 1.3151495674 -5.5895559864 -1.8075000000
56 1 0.8767663783 -3.8467086948 0.0000000000
57 1 0.4383831891 -2.1020084057 1.8075000000
58 1 0.0000000000 -0.3557887174 3.6150000000
59 1 2.6302989356 -3.3862626964 -1.8075000000
60 1 2.1919157464 -1.6410425971 0.0000000000
61 1 1.7535325573 0.1057286778 1.8075000000
62 1 1.3151493681 1.8538900206 3.6150000000
63 1 3.9454483037 -1.1816204474 -1.8075000000
64 1 3.5070651146 0.5658656147 0.0000000000
65 1 3.0686819254 2.3148191406 1.8075000000
66 1 2.6302987363 4.0652200367 3.6150000000
67 1 5.2605976719 1.0245434579 -1.8075000000
68 1 4.8222144827 2.7743128359 0.0000000000
69 1 4.3838312936 4.5256188368 1.8075000000
70 1 3.9454481044 6.2785706335 3.6150000000
71 1 6.5757470400 3.2322809289 -1.8075000000
72 1 6.1373638509 4.9843878665 0.0000000000
73 1 5.6989806617 6.7381898793 1.8075000000
74 1 5.2605974726 8.4939007281 3.6150000000
75 1 7.8908964082 5.4414747687 -1.8075000000
76 1 7.4525132190 7.1959178659 0.0000000000
77 1 7.0141300299 8.9522198276 1.8075000000
78 1 6.5757468407 10.7106385817 3.6150000000
79 1 9.2060457763 7.6517981403 -1.8075000000
80 1 8.7676625872 9.4084341807 0.0000000000
81 1 8.3292793980 11.1670028974 1.8075000000
82 1 7.8908962089 12.9277179923 3.6150000000
83 1 10.5211951445 9.8627202193 -1.8075000000
84 1 10.0828119553 11.6212206456 0.0000000000
85 1 9.6444287662 13.3815713370 1.8075000000
86 1 11.8363445126 12.0735834992 -1.8075000000
87 1 11.3979613235 13.8334653123 0.0000000000
88 1 13.1514938808 14.2837358148 -1.8075000000
89 1 0.8767665776 -11.2616398328 -1.8075000000
90 1 0.4383833884 -9.5286942265 0.0000000000
91 1 0.0000001993 -7.7917694981 1.8075000000
92 1 2.1919159457 -9.0681008670 -1.8075000000
93 1 1.7535327566 -7.3301568140 0.0000000000
94 1 1.3151495674 -5.5895559864 1.8075000000
95 1 0.8767663783 -3.8467086948 3.6150000000
96 1 3.5070653139 -6.8712134334 -1.8075000000
97 1 3.0686821247 -5.1297271695 0.0000000000
98 1 2.6302989356 -3.3862626964 1.8075000000
99 1 2.1919157464 -1.6410425971 3.6150000000
100 1 4.8222146820 -4.6718805875 -1.8075000000
101 1 4.3838314929 -2.9275686650 0.0000000000
102 1 3.9454483037 -1.1816204474 1.8075000000
103 1 3.5070651146 0.5658656147 3.6150000000
104 1 6.1373640502 -2.4705106773 -1.8075000000
105 1 5.6989808610 -0.7237312798 0.0000000000
106 1 5.2605976719 1.0245434579 1.8075000000
107 1 4.8222144827 2.7743128359 3.6150000000
108 1 7.4525134183 -0.2673341288 -1.8075000000
109 1 7.0141302292 1.4817337460 0.0000000000
110 1 6.5757470400 3.2322809289 1.8075000000
111 1 6.1373638509 4.9843878665 3.6150000000
112 1 8.7676627865 1.9374503823 -1.8075000000
113 1 8.3292795973 3.6886983347 0.0000000000
114 1 7.8908964082 5.4414747687 1.8075000000
115 1 7.4525132190 7.1959178659 3.6150000000
116 1 10.0828121546 4.1435938938 -1.8075000000
117 1 9.6444289655 5.8969040639 0.0000000000
118 1 9.2060457763 7.6517981403 1.8075000000
119 1 8.7676625872 9.4084341807 3.6150000000
120 1 11.3979615227 6.3507548482 -1.8075000000
121 1 10.9595783336 8.1059421732 0.0000000000
122 1 10.5211951445 9.8627202193 1.8075000000
123 1 10.0828119553 11.6212206456 3.6150000000
124 1 12.7131108909 8.5584973523 -1.8075000000
125 1 12.2747277018 10.3152836248 0.0000000000
126 1 11.8363445126 12.0735834992 1.8075000000
127 1 11.3979613235 13.8334653123 3.6150000000
128 1 14.0282602590 10.7663308246 -1.8075000000
129 1 13.5898770699 12.5243583664 0.0000000000
130 1 13.1514938808 14.2837358148 1.8075000000
131 1 15.3434096272 12.9737773271 -1.8075000000
132 1 14.9050264381 14.7326545026 0.0000000000
133 1 0.0000003986 14.6430345841 0.0000000000
134 1 1.7535329558 -14.7145712722 -1.8075000000
135 1 1.3151497667 -12.9901304507 0.0000000000
136 1 0.8767665776 -11.2616398328 1.8075000000
137 1 0.4383833884 -9.5286942265 3.6150000000
138 1 3.0686823240 -12.5350406862 -1.8075000000
139 1 2.6302991349 -10.8030701454 0.0000000000
140 1 2.1919159457 -9.0681008670 1.8075000000
141 1 1.7535327566 -7.3301568140 3.6150000000
142 1 4.3838316921 -10.3475934028 -1.8075000000
143 1 3.9454485030 -8.6105290154 0.0000000000
144 1 3.5070653139 -6.8712134334 1.8075000000
145 1 3.0686821247 -5.1297271695 3.6150000000
146 1 5.6989810603 -8.1552456270 -1.8075000000
147 1 5.2605978711 -6.4144583823 0.0000000000
148 1 4.8222146820 -4.6718805875 1.8075000000
149 1 4.3838314929 -2.9275686650 3.6150000000
150 1 7.0141304284 -5.9595096073 -1.8075000000
151 1 6.5757472393 -4.2157746123 0.0000000000
152 1 6.1373640502 -2.4705106773 1.8075000000
153 1 5.6989808610 -0.7237312798 3.6150000000
154 1 8.3292797966 -3.7612037218 -1.8075000000
155 1 7.8908966074 -2.0149691066 0.0000000000
156 1 7.4525134183 -0.2673341288 1.8075000000
157 1 7.0141302292 1.4817337460 3.6150000000
158 1 9.6444291647 -1.5608290539 -1.8075000000
159 1 9.2060459756 0.1876324698 0.0000000000
160 1 8.7676627865 1.9374503823 1.8075000000
161 1 8.3292795973 3.6886983347 3.6150000000
162 1 10.9595785329 0.6412442693 -1.8075000000
163 1 10.5211953437 2.3917411199 0.0000000000
164 1 10.0828121546 4.1435938938 1.8075000000
165 1 9.6444289655 5.8969040639 3.6150000000
166 1 12.2747279010 2.8446786161 -1.8075000000
167 1 11.8363447119 4.5970362961 0.0000000000
168 1 11.3979615227 6.3507548482 1.8075000000
169 1 10.9595783336 8.1059421732 3.6150000000
170 1 13.5898772692 5.0491200366 -1.8075000000
171 1 13.1514940800 6.8031393513 0.0000000000
172 1 12.7131108909 8.5584973523 1.8075000000
173 1 12.2747277018 10.3152836248 3.6150000000
174 1 14.9050266373 7.2541856265 -1.8075000000
175 1 14.4666434482 9.0096237327 0.0000000000
176 1 14.0282602590 10.7663308246 1.8075000000
177 1 13.5898770699 12.5243583664 3.6150000000
178 1 16.2201760055 9.4594792996 -1.8075000000
179 1 15.7817928163 11.2160540302 0.0000000000
180 1 15.3434096272 12.9737773271 1.8075000000
181 1 14.9050264381 14.7326545026 3.6150000000
182 1 17.5353253736 11.6646249646 -1.8075000000
183 1 17.0969421845 13.4220370507 0.0000000000
184 1 18.8504747418 13.8693022156 -1.8075000000
185 1 0.0000003986 14.6430345841 3.6150000000
186 1 1.7535329558 -14.7145712722 1.8075000000
187 1 1.3151497667 -12.9901304507 3.6150000000
188 1 3.5070655131 -14.2645357410 0.0000000000
189 1 3.0686823240 -12.5350406862 1.8075000000
190 1 2.6302991349 -10.8030701454 3.6150000000
191 1 5.2605980704 -13.8158660052 -1.8075000000
192 1 4.8222148813 -12.0825496355 0.0000000000
193 1 4.3838316921 -10.3475934028 1.8075000000
194 1 3.9454485030 -8.6105290154 3.6150000000
195 1 6.5757474386 -11.6317595865 -1.8075000000
196 1 6.1373642494 -9.8942815185 0.0000000000
197 1 5.6989810603 -8.1552456270 1.8075000000
198 1 5.2605978711 -6.4144583823 3.6150000000
199 1 7.8908968067 -9.4425612352 -1.8075000000
200 1 7.4525136176 -7.7017397906 0.0000000000
201 1 7.0141304284 -5.9595096073 1.8075000000
202 1 6.5757472393 -4.2157746123 3.6150000000
203 1 9.2060461749 -7.2496602317 -1.8075000000
204 1 8.7676629857 -5.5060777053 0.0000000000
205 1 8.3292797966 -3.7612037218 1.8075000000
206 1 7.8908966074 -2.0149691066 3.6150000000
207 1 10.5211955430 -5.0539458858 -1.8075000000
208 1 10.0828123539 -3.3079983770 0.0000000000
209 1 9.6444291647 -1.5608290539 1.8075000000
210 1 9.2060459756 0.1876324698 3.6150000000
211 1 11.8363449112 -2.8560184906 -1.8075000000
212 1 11.3979617220 -1.1079822373 0.0000000000
213 1 10.9595785329 0.6412442693 1.8075000000
214 1 10.5211953437 2.3917411199 3.6150000000
215 1 13.1514942793 -0.6563265714 -1.8075000000
216 1 12.7131110902 1.0935866510 0.0000000000
217 1 12.2747279010 2.8446786161 1.8075000000
218 1 11.8363447119 4.5970362961 3.6150000000
219 1 14.4666436475 1.5447506257 -1.8075000000
220 1 14.0282604583 3.2963518070 0.0000000000
221 1 13.5898772692 5.0491200366 1.8075000000
222 1 13.1514940800 6.8031393513 3.6150000000
223 1 15.7817930156 3.7468583492 -1.8075000000
224 1 15.3434098265 5.4999533683 0.0000000000
225 1 14.9050266373 7.2541856265 1.8075000000
226 1 14.4666434482 9.0096237327 3.6150000000
227 1 17.0969423838 5.9496490872 -1.8075000000
228 1 16.6585591946 7.7040252363 0.0000000000
229 1 16.2201760055 9.4594792996 1.8075000000
230 1 15.7817928163 11.2160540302 3.6150000000
231 1 18.4120917519 8.1527854078 -1.8075000000
232 1 17.9737085628 9.9082117933 0.0000000000
233 1 17.5353253736 11.6646249646 1.8075000000
234 1 17.0969421845 13.4220370507 3.6150000000
235 1 19.7272411201 10.3559549502 -1.8075000000
236 1 19.2888579309 12.1121935010 0.0000000000
237 1 18.8504747418 13.8693022156 1.8075000000
238 1 21.0423904882 12.5588887687 -1.8075000000
239 1 20.6040072991 14.3157101421 0.0000000000
240 1 22.3575398564 14.7613753795 -1.8075000000
241 1 3.5070655131 -14.2645357410 3.6150000000
242 1 5.2605980704 -13.8158660052 1.8075000000
243 1 4.8222148813 -12.0825496355 3.6150000000
244 1 7.4525138169 14.7063146110 -1.8075000000
245 1 7.0141306277 -13.3680668697 0.0000000000
246 1 6.5757474386 -11.6317595865 1.8075000000
247 1 6.1373642494 -9.8942815185 3.6150000000
248 1 8.7676631850 -12.9208889179 -1.8075000000
249 1 8.3292799959 -11.1821725465 0.0000000000
250 1 7.8908968067 -9.4425612352 1.8075000000
251 1 7.4525136176 -7.7017397906 3.6150000000
252 1 10.0828125532 -10.7334982758 -1.8075000000
253 1 9.6444293640 -8.9920713952 0.0000000000
254 1 9.2060461749 -7.2496602317 1.8075000000
255 1 8.7676629857 -5.5060777053 3.6150000000
256 1 11.3979619213 -8.5425782069 -1.8075000000
257 1 10.9595787322 -6.7987635339 0.0000000000
258 1 10.5211955430 -5.0539458858 1.8075000000
259 1 10.0828123539 -3.3079983770 3.6150000000
260 1 12.7131112895 -6.3488772834 -1.8075000000
261 1 12.2747281003 -4.6029498805 0.0000000000
262 1 11.8363449112 -2.8560184906 1.8075000000
263 1 11.3979617220 -1.1079822373 3.6150000000
264 1 14.0282606576 -4.1529619142 -1.8075000000
265 1 13.5898774685 -2.4051461018 0.0000000000
266 1 13.1514942793 -0.6563265714 1.8075000000
267 1 12.7131110902 1.0935866510 3.6150000000
268 1 15.3434100257 -1.9552793599 -1.8075000000
269 1 14.9050268366 -0.2057654296 0.0000000000
270 1 14.4666436475 1.5447506257 1.8075000000
271 1 14.0282604583 3.2963518070 3.6150000000
272 1 16.6585593939 0.2437927515 -1.8075000000
273 1 16.2201762048 1.9948293137 0.0000000000
274 1 15.7817930156 3.7468583492 1.8075000000
275 1 15.3434098265 5.4999533683 3.6150000000
276 1 17.9737087620 2.4439149829 -1.8075000000
277 1 17.5353255729 4.1962985737 0.0000000000
278 1 17.0969423838 5.9496490872 1.8075000000
279 1 16.6585591946 7.7040252363 3.6150000000
280 1 19.2888581302 4.6447710564 -1.8075000000
281 1 18.8504749411 6.3983181478 0.0000000000
282 1 18.4120917519 8.1527854078 1.8075000000
283 1 17.9737085628 9.9082117933 3.6150000000
284 1 20.6040074983 6.8460656680 -1.8075000000
285 1 20.1656243092 8.6005846103 0.0000000000
286 1 19.7272411201 10.3559549502 1.8075000000
287 1 19.2888579309 12.1121935010 3.6150000000
288 1 21.9191568665 9.0475304960 -1.8075000000
289 1 21.4807736773 10.8028274375 0.0000000000
290 1 21.0423904882 12.5588887687 1.8075000000
291 1 20.6040072991 14.3157101421 3.6150000000
292 1 23.2343062346 11.2489332829 -1.8075000000
293 1 22.7959230455 13.0048213059 0.0000000000
294 1 22.3575398564 14.7613753795 1.8075000000
295 1 24.5494556028 13.4500855020 -1.8075000000
296 1 7.4525138169 14.7063146110 1.8075000000
297 1 7.0141306277 -13.3680668697 3.6150000000
298 1 9.2060463742 -14.6591263232 0.0000000000
299 1 8.7676631850 -12.9208889179 1.8075000000
300 1 8.3292799959 -11.1821725465 3.6150000000
301 1 10.9595789314 -14.2144903657 -1.8075000000
302 1 10.5211957423 -12.4741991298 0.0000000000
303 1 10.0828125532 -10.7334982758 1.8075000000
304 1 9.6444293640 -8.9920713952 3.6150000000
305 1 12.2747282996 -12.0279239037 -1.8075000000
306 1 11.8363451104 -10.2855602462 0.0000000000
307 1 11.3979619213 -8.5425782069 1.8075000000
308 1 10.9595787322 -6.7987635339 3.6150000000
309 1 13.5898776677 -9.8382465803 -1.8075000000
310 1 13.1514944786 -8.0939252680 0.0000000000
311 1 12.7131112895 -6.3488772834 1.8075000000
312 1 12.2747281003 -4.6029498805 3.6150000000
313 1 14.9050270359 -7.6460037311 -1.8075000000
314 1 14.4666438467 -5.8998753006 0.0000000000
315 1 14.0282606576 -4.1529619142 1.8075000000
316 1 13.5898774685 -2.4051461018 3.6150000000
317 1 16.2201764040 -5.4516614405 -1.8075000000
318 1 15.7817932149 -3.7038791445 0.0000000000
319 1 15.3434100257 -1.9552793599 1.8075000000
320 1 14.9050268366 -0.2057654296 3.6150000000
321 1 17.5353257722 -3.2556158035 -1.8075000000
322 1 17.0969425830 -1.5063282393 0.0000000000
323 1 16.6585593939 0.2437927515 1.8075000000
324 1 16.2201762048 1.9948293137 3.6150000000
325 1 18.8504751403 -1.0582117454 -1.8075000000
326 1 18.4120919512 0.6924344867 0.0000000000
327 1 17.9737087620 2.4439149829 1.8075000000
328 1 17.5353255729 4.1962985737 3.6150000000
329 1 20.1656245085 1.1402410395 -1.8075000000
330 1 19.7272413193 2.8920967411 0.0000000000
331 1 19.2888581302 4.6447710564 1.8075000000
332 1 18.8504749411 6.3983181478 3.6150000000
333 1 21.4807738766 3.3394589023 -1.8075000000
334 1 21.0423906875 5.0923696593 0.0000000000
335 1 20.6040074983 6.8460656680 1.8075000000
336 1 20.1656243092 8.6005846103 3.6150000000
337 1 22.7959232448 5.5391817711 -1.8075000000
338 1 22.3575400556 7.2929887399 0.0000000000
339 1 21.9191568665 9.0475304960 1.8075000000
340 1 21.4807736773 10.8028274375 3.6150000000
341 1 24.1110726129 7.7391754993 -1.8075000000
342 1 23.6726894238 9.4937193423 0.0000000000
343 1 23.2343062346 11.2489332829 1.8075000000
344 1 22.7959230455 13.0048213059 3.6150000000
345 1 25.4262219811 9.9392363755 -1.8075000000
346 1 24.9878387919 11.6943630431 0.0000000000
347 1 24.5494556028 13.4500855020 1.8075000000
348 1 26.7413713492 12.1391952629 -1.8075000000
349 1 26.3029881601 13.8947619603 0.0000000000
350 1 28.0565207174 14.3389196239 -1.8075000000
351 1 9.2060463742 -14.6591263232 3.6150000000
352 1 10.9595789314 -14.2144903657 1.8075000000
353 1 10.5211957423 -12.4741991298 3.6150000000
354 1 12.7131114887 -13.7699176401 0.0000000000
355 1 12.2747282996 -12.0279239037 1.8075000000
356 1 11.8363451104 -10.2855602462 3.6150000000
357 1 14.4666440460 -13.3254497007 -1.8075000000
358 1 14.0282608569 -11.5820212733 0.0000000000
359 1 13.5898776677 -9.8382465803 1.8075000000
360 1 13.1514944786 -8.0939252680 3.6150000000
361 1 15.7817934142 -11.1364663175 -1.8075000000
362 1 15.3434102250 -9.3914830751 0.0000000000
363 1 14.9050270359 -7.6460037311 1.8075000000
364 1 14.4666438467 -5.8998753006 3.6150000000
365 1 17.0969427823 -8.9452177737 -1.8075000000
366 1 16.6585595932 -7.1987342428 0.0000000000
367 1 16.2201764040 -5.4516614405 1.8075000000
368 1 15.7817932149 -3.7038791445 3.6150000000
369 1 18.4120921505 -6.7520559029 -1.8075000000
370 1 17.9737089613 -5.0041591771 0.0000000000
371 1 17.5353257722 -3.2556158035 1.8075000000
372 1 17.0969425830 -1.5063282393 3.6150000000
373 1 19.7272415186 -4.5573050007 -1.8075000000
374 1 19.2888583295 -2.8080980698 0.0000000000
375 1 18.8504751403 -1.0582117454 1.8075000000
376 1 18.4120919512 0.6924344867 3.6150000000
377 1 21.0423908868 -2.3612608234 -1.8075000000
378 1 20.6040076976 -0.6108561956 0.0000000000
379 1 20.1656245085 1.1402410395 1.8075000000
380 1 19.7272413193 2.8920967411 3.6150000000
381 1 22.3575402549 -0.1641941897 -1.8075000000
382 1 21.9191570658 1.5872881778 0.0000000000
383 1 21.4807738766 3.3394589023 1.8075000000
384 1 21.0423906875 5.0923696593 3.6150000000
385 1 23.6726896231 2.0336460039 -1.8075000000
386 1 23.2343064339 3.7860799657 0.0000000000
387 1 22.7959232448 5.5391817711 1.8075000000
388 1 22.3575400556 7.2929887399 3.6150000000
389 1 24.9878389912 4.2320321020 -1.8075000000
390 1 24.5494558021 5.9852874479 0.0000000000
391 1 24.1110726129 7.7391754993 1.8075000000
392 1 23.6726894238 9.4937193423 3.6150000000
393 1 26.3029883594 6.4307591815 -1.8075000000
394 1 25.8646051702 8.1847050104 0.0000000000
395 1 25.4262219811 9.9392363755 1.8075000000
396 1 24.9878387919 11.6943630431 3.6150000000
397 1 27.6181377275 8.6296476390 -1.8075000000
398 1 27.1797545384 10.3841565607 0.0000000000
399 1 26.7413713492 12.1391952629 1.8075000000
400 1 26.3029881601 13.8947619603 3.6150000000
401 1 28.9332870957 10.8285455962 -1.8075000000
402 1 28.4949039065 12.5834979762 0.0000000000
403 1 28.0565207174 14.3389196239 1.8075000000
404 1 30.2484364638 13.0273301236 -1.8075000000
405 1 29.8100532747 14.7826176167 0.0000000000
406 1 12.7131114887 -13.7699176401 3.6150000000
407 1 14.9050272352 14.7413451444 0.0000000000
408 1 14.4666440460 -13.3254497007 1.8075000000
409 1 14.0282608569 -11.5820212733 3.6150000000
410 1 16.6585597925 -14.6256084910 -1.8075000000
411 1 16.2201766033 -12.8811184989 0.0000000000
412 1 15.7817934142 -11.1364663175 1.8075000000
413 1 15.3434102250 -9.3914830751 3.6150000000
414 1 17.9737091606 -12.4369484645 -1.8075000000
415 1 17.5353259715 -10.6912431105 0.0000000000
416 1 17.0969427823 -8.9452177737 1.8075000000
417 1 16.6585595932 -7.1987342428 3.6150000000
418 1 19.2888585288 -10.2463401651 -1.8075000000
419 1 18.8504753396 -8.4994119113 0.0000000000
420 1 18.4120921505 -6.7520559029 1.8075000000
421 1 17.9737089613 -5.0041591771 3.6150000000
422 1 20.6040078969 -8.0540345400 -1.8075000000
423 1 20.1656247078 -6.3059194948 0.0000000000
424 1 19.7272415186 -4.5573050007 1.8075000000
425 1 19.2888583295 -2.8080980698 3.6150000000
426 1 21.9191572650 -5.8602833495 -1.8075000000
427 1 21.4807740759 -4.1110442923 0.0000000000
428 1 21.0423908868 -2.3612608234 1.8075000000
429 1 20.6040076976 -0.6108561956 3.6150000000
430 1 23.2343066332 -3.6653287781 -1.8075000000
431 1 22.7959234441 -1.9150456310 0.0000000000
432 1 22.3575402549 -0.1641941897 1.8075000000
433 1 21.9191570658 1.5872881778 3.6150000000
434 1 24.5494560013 -1.4693995031 -1.8075000000
435 1 24.1110728122 0.2818360212 0.0000000000
436 1 23.6726896231 2.0336460039 1.8075000000
437 1 23.2343064339 3.7860799657 3.6150000000
438 1 25.8646053695 0.7272909585 -1.8075000000
439 1 25.4262221804 2.4793789117 0.0000000000
440 1 24.9878389912 4.2320321020 1.8075000000
441 1 24.5494558021 5.9852874479 3.6150000000
442 1 27.1797547376 2.9245456783 -1.8075000000
443 1 26.7413715485 4.6773810262 0.0000000000
444 1 26.3029883594 6.4307591815 1.8075000000
445 1 25.8646051702 8.1847050104 3.6150000000
446 1 28.4949041058 5.1221861420 -1.8075000000
447 1 28.0565209166 6.8756620772 0.0000000000
448 1 27.6181377275 8.6296476390 1.8075000000
449 1 27.1797545384 10.3841565607 3.6150000000
450 1 29.8100534739 7.3200542763 -1.8075000000
451 1 29.3716702848 9.0740656892 0.0000000000
452 1 28.9332870957 10.8285455962 1.8075000000
453 1 28.4949039065 12.5834979762 3.6150000000
454 1 31.1252028421 9.5180141584 -1.8075000000
455 1 30.6868196529 11.2724609593 0.0000000000
456 1 30.2484364638 13.0273301236 1.8075000000
457 1 29.8100532747 14.7826176167 3.6150000000
458 1 32.4403522102 11.7159529147 -1.8075000000
459 1 32.0019690211 13.4707428309 0.0000000000
460 1 33.7555015784 13.9137805307 -1.8075000000
461 1 14.9050272352 14.7413451444 3.6150000000
462 1 16.6585597925 -14.6256084910 1.8075000000
463 1 16.2201766033 -12.8811184989 3.6150000000
464 1 18.4120923497 -14.1824735432 0.0000000000
465 1 17.9737091606 -12.4369484645 1.8075000000
466 1 17.5353259715 -10.6912431105 3.6150000000
467 1 20.1656249070 -13.7393823400 -1.8075000000
468 1 19.7272417179 -11.9929578417 0.0000000000
469 1 19.2888585288 -10.2463401651 1.8075000000
470 1 18.8504753396 -8.4994119113 3.6150000000
471 1 21.4807742752 -11.5491596631 -1.8075000000
472 1 21.0423910860 -9.8017478516 0.0000000000
473 1 20.6040078969 -8.0540345400 1.8075000000
474 1 20.1656247078 -6.3059194948 3.6150000000
475 1 22.7959236433 -9.3574569808 -1.8075000000
476 1 22.3575404542 -7.6090593428 0.0000000000
477 1 21.9191572650 -5.8602833495 1.8075000000
478 1 21.4807740759 -4.1110442923 3.6150000000
479 1 24.1110730115 -7.1644627750 -1.8075000000
480 1 23.6726898223 -5.4151108440 0.0000000000
481 1 23.2343066332 -3.6653287781 1.8075000000
482 1 22.7959234441 -1.9150456310 3.6150000000
483 1 25.4262223796 -4.9703689107 -1.8075000000
484 1 24.9878391905 -3.2201149767 0.0000000000
485 1 24.5494560013 -1.4693995031 1.8075000000
486 1 24.1110728122 0.2818360212 3.6150000000
487 1 26.7413717478 -2.7753632533 -1.8075000000
488 1 26.3029885586 -1.0242741134 0.0000000000
489 1 25.8646053695 0.7272909585 1.8075000000
490 1 25.4262221804 2.4793789117 3.6150000000
491 1 28.0565211159 -0.5796252833 -1.8075000000
492 1 27.6181379268 1.1722222490 0.0000000000
493 1 27.1797547376 2.9245456783 1.8075000000
494 1 26.7413715485 4.6773810262 3.6150000000
495 1 29.3716704841 1.6166769266 -1.8075000000
496 1 28.9332872949 3.3691996724 0.0000000000
497 1 28.4949041058 5.1221861420 1.8075000000
498 1 28.0565209166 6.8756620772 3.6150000000
499 1 30.6868198522 3.8133891477 -1.8075000000
500 1 30.2484366631 5.5665008635 0.0000000000
501 1 29.8100534739 7.3200542763 1.8075000000
502 1 29.3716702848 9.0740656892 3.6150000000
503 1 32.0019692204 6.0103730388 -1.8075000000
504 1 31.5635860312 7.7639875069 0.0000000000
505 1 31.1252028421 9.5180141584 1.8075000000
506 1 30.6868196529 11.2724609593 3.6150000000
507 1 33.3171185885 8.2075076876 -1.8075000000
508 1 32.8787353994 9.9615415178 0.0000000000
509 1 32.4403522102 11.7159529147 1.8075000000
510 1 32.0019690211 13.4707428309 3.6150000000
511 1 34.6322679567 10.4046904673 -1.8075000000
512 1 34.1938847675 12.1590654455 0.0000000000
513 1 33.7555015784 13.9137805307 1.8075000000
514 1 35.9474173248 12.6018370863 -1.8075000000
515 1 35.5090341357 14.3564819308 0.0000000000
516 1 37.2625666930 14.7988808421 -1.8075000000
517 1 18.4120923497 -14.1824735432 3.6150000000
518 1 20.1656249070 -13.7393823400 1.8075000000
519 1 19.7272417179 -11.9929578417 3.6150000000
520 1 22.3575406535 14.7666109333 -1.8075000000
521 1 21.9191574643 -13.2963697973 0.0000000000
522 1 21.4807742752 -11.5491596631 1.8075000000
523 1 21.0423910860 -9.8017478516 3.6150000000
524 1 23.6726900216 -12.8534616474 -1.8075000000
525 1 23.2343068325 -11.1055625415 0.0000000000
526 1 22.7959236433 -9.3574569808 1.8075000000
527 1 22.3575404542 -7.6090593428 3.6150000000
528 1 24.9878393898 -10.6621713571 -1.8075000000
529 1 24.5494562006 -8.9134580841 0.0000000000
530 1 24.1110730115 -7.1644627750 1.8075000000
531 1 23.6726898223 -5.4151108440 3.6150000000
532 1 26.3029887579 -8.4697411146 -1.8075000000
533 1 25.8646055688 -6.7202230153 0.0000000000
534 1 25.4262223796 -4.9703689107 1.8075000000
535 1 24.9878391905 -3.2201149767 3.6150000000
536 1 27.6181381261 -6.2763194053 -1.8075000000
537 1 27.1797549369 -4.5260271645 0.0000000000
538 1 26.7413717478 -2.7753632533 1.8075000000
539 1 26.3029885586 -1.0242741134 3.6150000000
540 1 28.9332874942 -4.0820574014 -1.8075000000
541 1 28.4949043051 -2.3310372373 0.0000000000
542 1 28.0565211159 -0.5796252833 1.8075000000
543 1 27.6181379268 1.1722222490 3.6150000000
544 1 30.2484368624 -1.8871034482 -1.8075000000
545 1 29.8100536732 -0.1354126108 0.0000000000
546 1 29.3716704841 1.6166769266 1.8075000000
547 1 28.9332872949 3.3691996724 3.6150000000
548 1 31.5635862305 0.3084008251 -1.8075000000
549 1 31.1252030414 2.0606977304 0.0000000000
550 1 30.6868198522 3.8133891477 1.8075000000
551 1 30.2484366631 5.5665008635 3.6150000000
552 1 32.8787355987 2.5043234079 -1.8075000000
553 1 32.4403524095 4.2571575936 0.0000000000
554 1 32.0019692204 6.0103730388 1.8075000000
555 1 31.5635860312 7.7639875069 3.6150000000
556 1 34.1938849668 4.7005441140 -1.8075000000
557 1 33.7555017777 6.4538454234 0.0000000000
558 1 33.3171185885 8.2075076876 1.8075000000
559 1 32.8787353994 9.9615415178 3.6150000000
560 1 35.5090343350 6.8969561648 -1.8075000000
561 1 35.0706511458 8.6506555327 0.0000000000
562 1 34.6322679567 10.4046904673 1.8075000000
563 1 34.1938847675 12.1590654455 3.6150000000
564 1 36.8241837031 9.0934671310 -1.8075000000
565 1 36.3858005140 10.8474986355 0.0000000000
566 1 35.9474173248 12.6018370863 1.8075000000
567 1 35.5090341357 14.3564819308 3.6150000000
568 1 38.1393330712 11.2899992136 -1.8075000000
569 1 37.7009498821 13.0443016564 0.0000000000
570 1 37.2625666930 14.7988808421 1.8075000000
571 1 39.4544824394 13.4864888980 -1.8075000000
572 1 22.3575406535 14.7666109333 1.8075000000
573 1 21.9191574643 -13.2963697973 3.6150000000
574 1 24.1110732108 -14.6012368241 0.0000000000
575 1 23.6726900216 -12.8534616474 1.8075000000
576 1 23.2343068325 -11.1055625415 3.6150000000
577 1 25.8646057680 -14.1590448944 -1.8075000000
578 1 25.4262225789 -12.4106765039 0.0000000000
579 1 24.9878393898 -10.6621713571 1.8075000000
580 1 24.5494562006 -8.9134580841 3.6150000000
581 1 27.1797551362 -11.9680273853 -1.8075000000
582 1 26.7413719471 -10.2189878738 0.0000000000
583 1 26.3029887579 -8.4697411146 1.8075000000
584 1 25.8646055688 -6.7202230153 3.6150000000
585 1 28.4949045043 -9.7760112964 -1.8075000000
586 1 28.0565213152 -8.0262953913 0.0000000000
587 1 27.6181381261 -6.2763194053 1.8075000000
588 1 27.1797549369 -4.5260271645 3.6150000000
589 1 29.8100538725 -7.5831096805 -1.8075000000
590 1 29.3716706834 -5.8327321786 0.0000000000
591 1 28.9332874942 -4.0820574014 1.8075000000
592 1 28.4949043051 -2.3310372373 3.6150000000
593 1 31.1252032406 -5.3894423537 -1.8075000000
594 1 30.6868200515 -3.6384333114 0.0000000000
595 1 30.2484368624 -1.8871034482 1.8075000000
596 1 29.8100536732 -0.1354126108 3.6150000000
597 1 32.4403526088 -3.1951303120 -1.8075000000
598 1 32.0019694196 -1.4435310388 0.0000000000
599 1 31.5635862305 0.3084008251 1.8075000000
600 1 31.1252030414 2.0606977304 3.6150000000
601 1 33.7555019769 -1.0002915982 -1.8075000000
602 1 33.3171187878 0.7518487228 0.0000000000
603 1 32.8787355987 2.5043234079 1.8075000000
604 1 32.4403524095 4.2571575936 3.6150000000
605 1 35.0706513451 1.1949617974 -1.8075000000
606 1 34.6322681559 2.9475890218 0.0000000000
607 1 34.1938849668 4.7005441140 1.8075000000
608 1 33.7555017777 6.4538454234 3.6150000000
609 1 36.3858007132 3.3905262546 -1.8075000000
610 1 35.9474175241 5.1435838145 0.0000000000
611 1 35.5090343350 6.8969561648 1.8075000000
612 1 35.0706511458 8.6506555327 3.6150000000
613 1 37.7009500814 5.5863081828 -1.8075000000
614 1 37.2625668922 7.3397392745 0.0000000000
615 1 36.8241837031 9.0934671310 1.8075000000
616 1 36.3858005140 10.8474986355 3.6150000000
617 1 39.0160994495 7.7822250739 -1.8075000000
618 1 38.5777162604 9.5359744822 0.0000000000
619 1 38.1393330712 11.2899992136 1.8075000000
620 1 37.7009498821 13.0443016564 3.6150000000
621 1 40.3312488177 9.9782059841 -1.8075000000
622 1 39.8928656285 11.7322215191 0.0000000000
623 1 39.4544824394 13.4864888980 1.8075000000
624 1 41.6463981858 12.1741914914 -1.8075000000
625 1 41.2080149967 13.9284250276 0.0000000000
626 1 42.9615475540 14.3701332091 -1.8075000000
627 1 24.1110732108 -14.6012368241 3.6150000000
628 1 25.8646057680 -14.1590448944 1.8075000000
629 1 25.4262225789 -12.4106765039 3.6150000000
630 1 27.6181383253 -13.7169217012 0.0000000000
631 1 27.1797551362 -11.9680273853 1.8075000000
632 1 26.7413719471 -10.2189878738 3.6150000000
633 1 29.3716708826 -13.2748843127 -1.8075000000
634 1 28.9332876935 -11.5255228824 0.0000000000
635 1 28.4949045043 -9.7760112964 1.8075000000
636 1 28.0565213152 -8.0262953913 3.6150000000
637 1 30.6868202508 -11.0831680772 -1.8075000000
638 1 30.2484370616 -9.3332387704 0.0000000000