LAMMPS data file via write_data, version 29 Aug 2024, timestep = 1154, units = metal

3654 atoms
2 atom types

-100.1 100.1 xlo xhi
-14.90504265 14.90504265 ylo yhi
-3.615 3.615 zlo zhi
0 0 0 xy xz yz

Masses

1 63.55
2 63.55

Atoms # atomic

1 1 0.5533715405762365 12.91713119473019 -3.1372777238375424 0 0 0
2 1 -0.4570098964989455 -13.427977266590629 -3.137084077953829 0 0 0
3 1 0.1667347813599207 7.176717137604287 -3.137279860313217 0 0 0
4 1 1.5075014011950714 9.351380248768583 -3.1372633801149585 0 0 0
5 1 1.0568128487081765 11.118724223845936 -1.330347439833233 0 0 0
6 1 0.5613482584015941 12.896100360751879 0.4777400625119435 0 0 0
7 2 -2.2776086701054226 -13.881645103324264 2.219410363543556 0 0 0
8 1 2.7551214815791667 11.585220445663344 -3.137233844098283 0 0 0
9 1 2.265550122378272 13.358913010054708 -1.329174288405076 0 0 0
10 1 4.0156233644319315 13.789797380919035 -3.137350735668907 0 0 0
11 1 1.0398109999099319 3.6735153563902454 -3.1371396042544175 0 0 0
12 1 0.6049663901693663 5.429422834180217 -1.329880834744002 0 0 0
13 1 0.1669739404731274 7.176008673358739 0.477759745840518 0 0 0
14 1 2.356038722213924 5.858171738553063 -3.1372408324909706 0 0 0
15 1 1.929475086710454 7.6064033955641275 -1.3292149602678276 0 0 0
16 1 1.5041024047355904 9.354653023438784 0.47773968610724793 0 0 0
17 1 1.0568308036328773 11.11867053900876 2.2858197497367887 0 0 0
18 1 3.676377797394096 8.04513148054537 -3.13725717145115 0 0 0
19 1 3.2300443233752674 9.809596519177388 -1.3297681537173947 0 0 0
20 1 2.7596209558278133 11.582973878584342 0.47771744831567414 0 0 0
21 1 2.265619268095193 13.358701746923893 2.2846649830258126 0 0 0
22 1 4.949544717768106 10.261372811125229 -3.1372447117248625 0 0 0
23 1 4.480866656966782 12.030979527732269 -1.3300279488439124 0 0 0
24 1 4.013741994376545 13.791800288567108 0.4778585126111107 0 0 0
25 1 6.225499629133992 12.465292196892333 -3.1372818410511574 0 0 0
26 1 5.776962002401689 14.218918688952625 -1.3298549693477304 0 0 0
27 1 -5.090399425801294 -14.61989460565436 1.7338018973505043 0 0 0
28 1 0.5628469064541122 -2.018930550036613 -3.1383373176978466 0 0 0
29 1 0.12615890043950628 -0.25055702869314445 -1.3297691023424703 0 0 0
30 1 1.881919090856897 0.16114802056650923 -3.1375341296041994 0 0 0
31 1 1.4629840679558868 1.9185966805067824 -1.3297426319696084 0 0 0
32 1 1.0397172957037526 3.673601098403319 0.4775909541820069 0 0 0
33 1 0.604900770273403 5.429210114300533 2.2853495871588403 0 0 0
34 1 3.2138564382939734 2.3420768945532817 -3.1373430476707713 0 0 0
35 1 2.7866920013031518 4.1021601545782875 -1.329825819318792 0 0 0
36 1 2.356224791546069 5.85770894308161 0.47770712206407046 0 0 0
37 1 1.9294382196486026 7.606339886595469 2.2846893615844546 0 0 0
38 1 4.534588795807068 4.531122784831615 -3.1372870831571045 0 0 0
39 1 4.106606192532837 6.288646349145294 -1.32962260144034 0 0 0
40 1 3.675373127099931 8.046051955647291 0.47773193602620423 0 0 0
41 1 3.230040563941415 9.80957284676177 2.285247696727933 0 0 0
42 1 5.849271799413941 6.725734725812577 -3.137268078604568 0 0 0
43 1 5.407392056235608 8.491086401206507 -1.3297657288888756 0 0 0
44 1 4.950930925285633 10.260716051878822 0.47772843340162013 0 0 0
45 1 4.480911554340892 12.030886218025847 2.2855201355904113 0 0 0
46 1 7.137322650475866 8.93521242204403 -3.137255773648552 0 0 0
47 1 6.681542464756475 10.70291451750956 -1.3298584169869008 0 0 0
48 1 6.22458191534443 12.465723249736024 0.47777698086230674 0 0 0
49 1 5.77677413609473 14.219123343312996 2.2853624555624648 0 0 0
50 1 8.424640510608214 11.138373863450136 -3.137265424298963 0 0 0
51 1 7.978060211049126 12.89670180938644 -1.3297183553354028 0 0 0
52 1 -0.8607404420636868 -11.767849474541864 -1.2588616396279593 0 0 0
53 1 9.73234280509584 13.328694290532317 -3.1372446692365847 0 0 0
54 1 0.05505967067541917 -7.74984116517485 -3.1527570442117376 0 0 0
55 1 1.3732327707545124 -5.57353438008812 -3.165109217179545 0 0 0
56 1 0.9838627409293963 -3.8032364965416683 -1.329678085457 0 0 0
57 1 0.5621676813727703 -2.0198002000208124 0.47870533499162327 0 0 0
58 1 0.1274693939454039 -0.24644147662750804 2.2851573966732293 0 0 0
59 1 2.7224356903205233 -3.3767338509867972 -3.1385895525500156 0 0 0
60 1 2.301473585425029 -1.605554879667908 -1.3297177725744365 0 0 0
61 1 1.8817302255738468 0.1608923840347014 0.4779442060085387 0 0 0
62 1 1.4633375902234462 1.9198245662603153 2.2851735109545626 0 0 0
63 1 4.053205468438833 -1.1812534544241942 -3.1374589425496096 0 0 0
64 1 3.6345184088175273 0.5805257068497269 -1.3297601886543224 0 0 0
65 1 3.2137867566087834 2.3420522765990075 0.47778358744108906 0 0 0
66 1 2.786810365655384 4.102519660895068 2.2852802248830772 0 0 0
67 1 5.386291156745102 1.0101283826398113 -3.137318171972218 0 0 0
68 1 4.961671537942465 2.770705900375626 -1.329795351225272 0 0 0
69 1 4.534682733274835 4.530940296451687 0.47774591332623967 0 0 0
70 1 4.106649816154629 6.288757561376746 2.2850901397765138 0 0 0
71 1 6.710371410916565 3.204638116032724 -3.1372818140855356 0 0 0
72 1 6.2813914462321065 4.964431371943496 -1.3297340342930017 0 0 0
73 1 5.84897865611434 6.725990022314077 0.47773839904624255 0 0 0
74 1 5.407406525283918 8.491124318127119 2.285242770356905 0 0 0
75 1 8.025037608227976 5.403617699202853 -3.1372699831048236 0 0 0
76 1 7.585666498443459 7.167640631366128 -1.3297674336328873 0 0 0
77 1 7.137731851821002 8.935010868307222 0.47773512476921987 0 0 0
78 1 6.681568954560518 10.702892996207117 2.2853446500110013 0 0 0
79 1 9.322717966336072 7.6101099410233015 -3.1372618561499697 0 0 0
80 1 8.874247564888108 9.37524259326071 -1.3297852039163436 0 0 0
81 1 8.424301632158247 11.138507788250818 0.47775236891762735 0 0 0
82 1 7.977998087915438 12.896771434763723 2.2852124409751804 0 0 0
83 1 10.618483769648407 9.812625785747942 -3.1372621700813 0 0 0
84 1 10.174051746577604 11.572089693455831 -1.3297363790431762 0 0 0
85 1 9.7325771173184 13.328580229493623 0.4777363200726544 0 0 0
86 1 11.92639993047618 12.00617437537439 -3.137254772895513 0 0 0
87 1 11.486938093190119 13.761729603155922 -1.3297719479256795 0 0 0
88 1 13.241806963987742 14.19575326354778 -3.137258243979551 0 0 0
89 1 0.8998715069206042 -11.277466856501984 -3.1341646722521026 0 0 0
90 1 0.47612400014425305 -9.523738403529403 -1.3265723610449063 0 0 0
91 1 0.05830231790992002 -7.744084174628696 0.4939175074156309 0 0 0
92 1 2.2327820382612913 -9.07240777184598 -3.139569436379532 0 0 0
93 1 1.8031934776712575 -7.322647319176746 -1.330053073716483 0 0 0
94 1 1.3752036086077482 -5.571920516343132 0.5051812901490553 0 0 0
95 1 0.9774305853791248 -3.812177507506629 2.2850250468707016 0 0 0
96 1 3.5657204089496446 -6.879151136739667 -3.1395751668006993 0 0 0
97 1 3.1313879222190053 -5.138078061650438 -1.3300689761604148 0 0 0
98 1 2.722931373480563 -3.3762338555723943 0.478966467871273 0 0 0
99 1 2.299027673432903 -1.6102102052473448 2.285109726899465 0 0 0
100 1 4.906895536447564 -4.690278170189549 -3.1334115297375233 0 0 0
101 1 4.475572161395704 -2.940180032701516 -1.3298573785379977 0 0 0
102 1 4.0533844952086895 -1.1810901397246027 0.4778772459048181 0 0 0
103 1 3.633756880752557 0.5791929180680313 2.285187681856447 0 0 0
104 1 6.237801488417276 -2.4984176073338933 -3.136601124132276 0 0 0
105 1 5.8101421661715875 -0.7469893483939636 -1.329799069482135 0 0 0
106 1 5.386331477837132 1.010205472376482 0.47775988035899924 0 0 0
107 1 4.961447646275076 2.770313223232856 2.285244829398127 0 0 0
108 1 7.5678855721552765 -0.30693560744548165 -3.1371295474438265 0 0 0
109 1 7.138773101636701 1.4468845250339921 -1.3297875063296294 0 0 0
110 1 6.710427850894618 3.204602779250207 0.47773897806768656 0 0 0
111 1 6.281323976126302 4.964314265158121 2.285197599813754 0 0 0
112 1 8.891480271915214 1.8876429784730764 -3.137234345450985 0 0 0
113 1 8.459026307548527 3.643751368473252 -1.3297611797699984 0 0 0
114 1 8.024953412597256 5.4036975752330125 0.47773786813773295 0 0 0
115 1 7.5856440199004425 7.167608080618242 2.2852407160307577 0 0 0
116 1 10.206272245783012 4.086528811015961 -3.1372565944266597 0 0 0
117 1 9.766800457250596 5.846487005953547 -1.3297667535004343 0 0 0
118 1 9.32283950882227 7.610047538163384 0.4777376148535509 0 0 0
119 1 8.874249183735245 9.3752203105588 2.285266125438372 0 0 0
120 1 11.509656203811446 6.289933043074134 -3.1372596861038202 0 0 0
121 1 11.064430999896658 8.05122253419612 -1.32976684801226 0 0 0
122 1 10.618371562755158 9.812672494464964 0.4777438538048312 0 0 0
123 1 10.174028279978145 11.57210721582029 2.2852227935566636 0 0 0
124 1 12.81105217027752 8.490902173370506 -3.137260713617059 0 0 0
125 1 12.367736119356792 10.249142878634698 -1.3297520054747063 0 0 0
126 1 11.926480885014598 12.006140963365889 0.47774011488092916 0 0 0
127 1 11.486971231200869 13.761700999789879 2.2852608989632226 0 0 0
128 1 14.119870263562333 10.685693670837848 -3.1372582187929314 0 0 0
129 1 13.680170724880526 12.44109126950209 -1.329763835320476 0 0 0
130 1 13.241754702467247 14.195769905145182 0.47774477569965335 0 0 0
131 1 15.434786614479535 12.87674655324882 -3.137258818574338 0 0 0
132 1 -0.8642079732149313 -11.771545267637457 2.2129679880126267 0 0 0
133 1 0.024477300779281563 14.700249830358002 -1.2925725889485122 0 0 0
134 1 1.786762755332731 -14.7034546441649 -3.1376239152964818 0 0 0
135 1 1.35396439282205 -12.985101102335468 -1.3208468302446459 0 0 0
136 1 0.9204668321209795 -11.28246189034881 0.4750931945510071 0 0 0
137 1 0.47761721155231385 -9.545176475102735 2.282249220626366 0 0 0
138 1 3.1212098814156377 -12.541687797338753 -3.1366753949426753 0 0 0
139 1 2.682395322771839 -10.806603263707977 -1.3320821131559362 0 0 0
140 1 2.2340515882227976 -9.073839100942884 0.4801738508380367 0 0 0
141 1 1.7833516094262905 -7.314507031178337 2.285703315580456 0 0 0
142 1 4.4478648168350645 -10.35723284856752 -3.137893314754687 0 0 0
143 1 4.002912472764507 -8.61882409379994 -1.330106659671099 0 0 0
144 1 3.5655264321192277 -6.879622642325211 0.48008087902729335 0 0 0
145 1 3.1609054631644398 -5.130047327727919 2.285436121977778 0 0 0
146 1 5.7715160651398065 -8.174357964845374 -3.137525856303007 0 0 0
147 1 5.33441178417597 -6.434451105800191 -1.3297850523469874 0 0 0
148 1 4.906649308558812 -4.690475607895991 0.47383882048846043 0 0 0
149 1 4.479784051421731 -2.9365655780769337 2.285272956414774 0 0 0
150 1 7.10326245335942 -5.9912697145371965 -3.1364838441804586 0 0 0
151 1 6.670146576420464 -4.24618125860831 -1.3297543020656886 0 0 0
152 1 6.2377175803943885 -2.49850284833747 0.477040324503267 0 0 0
153 1 5.811182836294236 -0.7458970872393387 2.2852365335229536 0 0 0
154 1 8.43091007784885 -3.8042081819446434 -3.1375605423155437 0 0 0
155 1 7.998608255444736 -2.0568215654264517 -1.3297633189941989 0 0 0
156 1 7.5678475423239036 -0.30695818520016793 0.47758025090585987 0 0 0
157 1 7.139053977862801 1.44721557422322 2.2852399738523412 0 0 0
158 1 9.75707119602724 -1.6151290064671837 -3.137378357575363 0 0 0
159 1 9.324075440839422 0.13489222970382464 -1.3297689313476007 0 0 0
160 1 8.891484078843405 1.8876149684622288 0.47769471201418084 0 0 0
161 1 8.459106881903438 3.6438520178008194 2.2852245232094037 0 0 0
162 1 11.078479682385591 0.5774595020368452 -3.1372997994993033 0 0 0
163 1 10.642950919633563 2.3304555919714876 -1.329763226218002 0 0 0
164 1 10.206241154380862 4.08654702479908 0.4777246639606732 0 0 0
165 1 9.766823538058617 5.84651938896266 2.285238180234507 0 0 0
166 1 12.39277038521206 2.7742325869605207 -3.137274653458027 0 0 0
167 1 11.952518621409936 4.530665558824635 -1.3297645949019887 0 0 0
168 1 11.509691086530239 6.289911195564992 0.4777338056556171 0 0 0
169 1 11.064441563612405 8.051228406004858 2.285244390941871 0 0 0
170 1 13.699253393996514 4.9743325687124464 -3.1372656434154846 0 0 0
171 1 13.255375699738465 6.732267271817337 -1.3297629542382217 0 0 0
172 1 12.811016107443194 8.490917595559692 0.47773939238021396 0 0 0
173 1 12.367731376972202 10.249152618678371 2.2852338462966038 0 0 0
174 1 15.004102756420991 7.173158545695399 -3.1372624132566997 0 0 0
175 1 14.56126400702263 8.929645750836334 -1.3297582238603807 0 0 0
176 1 14.119897478120905 10.685682828514233 0.4777398657279349 0 0 0
177 1 13.680182260496125 12.441083885808935 2.285247968706789 0 0 0
178 1 16.313699932513956 9.367863106234529 -3.137260208473893 0 0 0
179 1 15.873571044050024 11.122490384498645 -1.3297613450314991 0 0 0
180 1 15.434769255027163 12.876752284176584 0.477741823886167 0 0 0
181 1 -2.7366308873279053 -12.19091047818703 0.4790148835527618 0 0 0
182 1 17.62814610885924 11.559491669085398 -3.1372597264576454 0 0 0
183 1 17.18998404925175 13.312945431087554 -1.32975743215252 0 0 0
184 1 18.945515734014606 13.74955572893826 -3.1372594523422066 0 0 0
185 1 0.024504986045343458 14.700621164778793 2.2479911094168155 0 0 0
186 1 1.7941822581130822 -14.695751359858082 0.47814975727375975 0 0 0
187 1 1.3528183338005704 -12.982784500313187 2.276481805449519 0 0 0
188 1 3.569913744235649 -14.275974095468696 -1.3312883884393847 0 0 0
189 1 3.1444189148127037 -12.537714775855259 0.4772658051285607 0 0 0
190 1 2.684655979801832 -10.809899568215013 2.287690635261988 0 0 0
191 1 5.334895680775901 -13.843151744468294 -3.137100661026643 0 0 0
192 1 4.894144390050499 -12.09841830158478 -1.33270188117641 0 0 0
193 1 4.448702228222146 -10.355273178495828 0.4784546469319613 0 0 0
194 1 3.996497581061888 -8.61476089657152 2.2856464973358466 0 0 0
195 1 6.655254217892974 -11.660603326760665 -3.137390182011921 0 0 0
196 1 6.212140373701331 -9.915661257468283 -1.329900754837238 0 0 0
197 1 5.771633001529352 -8.173922532057045 0.47803102445118006 0 0 0
198 1 5.340770888000193 -6.435491735790441 2.2852639457875425 0 0 0
199 1 7.975151089827847 -9.478325643657119 -3.1372909927802755 0 0 0
200 1 7.537678281686752 -7.73415443022734 -1.3297488920141245 0 0 0
201 1 7.103294095928717 -5.9911403966333605 0.4769578066041376 0 0 0
202 1 6.667860468579903 -4.246716036878006 2.285204771057309 0 0 0
203 1 9.301079629039819 -7.29596875644879 -3.137080765431924 0 0 0
204 1 8.866042391075865 -5.55009470305413 -1.3297605470857223 0 0 0
205 1 8.430942386922453 -3.804167047232035 0.4780214329227484 0 0 0
206 1 7.997890474733609 -2.057216756922207 2.285216521282926 0 0 0
207 1 10.625761396799106 -5.110641655306946 -3.1373809945382014 0 0 0
208 1 10.19098872530661 -3.363188707137148 -1.3297681729872812 0 0 0
209 1 9.757082087721528 -1.6151104595655905 0.4778400669056521 0 0 0
210 1 9.323858082333302 0.13473317514894845 2.28522855609404 0 0 0
211 1 11.94888239665103 -2.922805942359135 -3.1372594458572656 0 0 0
212 1 11.513702374868728 -1.1733183415278425 -1.3297683720614828 0 0 0
213 1 11.078490307964415 0.5774598495518521 0.47776545636666135 0 0 0
214 1 10.64288534901847 2.330398584657603 2.2852292630881412 0 0 0
215 1 13.268290728725646 -0.7316416053054109 -3.13725432530118 0 0 0
216 1 12.83111646251416 1.0203867722465958 -1.3297650189233854 0 0 0
217 1 12.39276385622803 2.774241382949727 0.4777447229639999 0 0 0
218 1 11.952497970370388 4.530646689714834 2.2852361590574386 0 0 0
219 1 14.582133773210373 1.4632074477583448 -3.1372590217591596 0 0 0
220 1 14.14161143760883 3.217914297343315 -1.3297640801525505 0 0 0
221 1 13.699265136074956 4.974326748993546 0.47773971535657367 0 0 0
222 1 13.25537050454075 6.732259450161321 2.2852389909206705 0 0 0
223 1 15.89048015676542 3.6606648349120885 -3.1372607645352475 0 0 0
224 1 15.447525222039701 5.416664312815831 -1.3297624055579769 0 0 0
225 1 15.0040918641552 7.1731641107647395 0.47773973891768573 0 0 0
226 1 14.561259698060866 8.92964568678824 2.285237539575298 0 0 0
227 1 17.197550504478087 5.857550806666003 -3.137260988185262 0 0 0
228 1 16.755165675080818 7.6128574034300325 -1.3297603791537833 0 0 0
229 1 16.313708997908222 9.36785963691222 0.4777398246484846 0 0 0
230 1 15.873573860757546 11.122487091106697 2.2852426349856745 0 0 0
231 1 18.507780800889634 8.051706033955261 -3.1372604272694327 0 0 0
232 1 18.06741017652236 9.80576799398296 -1.3297607896251569 0 0 0
233 1 17.628140270938985 11.55949368618232 0.47774061468278184 0 0 0
234 1 17.1899797726784 13.312947709098383 2.285239476698651 0 0 0
235 1 19.821829248786756 10.243466008291046 -3.1372601260990227 0 0 0
236 1 19.383213362968164 11.9966274352413 -1.3297592515832681 0 0 0
237 1 18.945519043075805 13.749554894879664 0.47774072326649186 0 0 0
238 1 21.13850394268549 12.433871530929407 -3.1372599157682655 0 0 0
239 1 20.701126750658617 14.186507535837032 -1.3297600089337973 0 0 0
240 2 -2.2768235963104644 -13.878445312245047 -1.2641343112354944 0 0 0
241 1 3.569387335746427 -14.27533866155172 2.286828891109601 0 0 0
242 1 5.337601674274595 -13.84472933095929 0.477626076683268 0 0 0
243 1 4.894990522740642 -12.099478327554827 2.288231551068202 0 0 0
244 1 7.535805975620406 14.650318910992814 -3.137212505461186 0 0 0
245 1 7.095583152977923 -13.409351190093806 -1.3300310143178635 0 0 0
246 1 6.652816462480828 -11.66117150784439 0.4779086421715578 0 0 0
247 1 6.210494383459547 -9.91447862029661 2.285424004314874 0 0 0
248 1 8.853416385291496 -12.975358059204117 -3.137279938956902 0 0 0
249 1 8.413649644428261 -11.225567877090166 -1.3294163654740359 0 0 0
250 1 7.974703290732549 -9.478641555474965 0.47779349241268415 0 0 0
251 1 7.539415130909404 -7.734627832693808 2.285240201009815 0 0 0
252 1 10.172826288659948 -10.791197905836912 -3.137261268660959 0 0 0
253 1 9.736390141817907 -9.042709462263641 -1.329682034039497 0 0 0
254 1 9.300985746318574 -7.296063211597564 0.47756508372143874 0 0 0
255 1 8.86514713634594 -5.550070052133917 2.2852338637121385 0 0 0
256 1 11.496135566186538 -8.607186789974877 -3.1372151304083484 0 0 0
257 1 11.061070593988035 -6.858523662173562 -1.329746359970224 0 0 0
258 1 10.625742510542466 -5.1106705036022735 0.47785499023716893 0 0 0
259 1 10.191053780919674 -3.3631708577111645 2.285234936691065 0 0 0
260 1 12.819041163134187 -6.42134396588361 -3.137297681211397 0 0 0
261 1 12.383932089908981 -4.671940979866507 -1.3297601960633296 0 0 0
262 1 11.948874685761908 -2.922813671224487 0.47772986700073555 0 0 0
263 1 11.51377186094885 -1.1732850320090833 2.2852355238584816 0 0 0
264 1 14.140373795133215 -4.233344248202622 -3.137251461694642 0 0 0
265 1 13.704625819894659 -2.4826813552346376 -1.3297630768354134 0 0 0
266 1 13.268290005580411 -0.7316462654112534 0.47772509438353816 0 0 0
267 1 12.83114689257863 1.0204053617474713 2.2852348054463807 0 0 0
268 1 15.458577681471468 -2.0425702815240605 -3.1372605446080613 0 0 0
269 1 15.021005904348442 -0.290122474612037 -1.3297629207230017 0 0 0
270 1 14.582130084916699 1.4632084704848172 0.47773166435302156 0 0 0
271 1 14.14162251430983 3.217922604995005 2.2852369958965006 0 0 0
272 1 16.77236577594647 0.15117848306363335 -3.137262910477901 0 0 0
273 1 16.332190630257813 1.9054859205168722 -1.329762665787723 0 0 0
274 1 15.890483174802696 3.6606623640349536 0.4777356734212668 0 0 0
275 1 15.447529560090885 5.416667033268935 2.2852382277939003 0 0 0
276 1 18.082112852378685 2.3469301591495775 -3.1372624215231713 0 0 0
277 1 17.640119543339353 4.102152301879412 -1.3297618583651705 0 0 0
278 1 17.197546884445444 5.857552402104938 0.47773799932629285 0 0 0
279 1 16.755166238568208 7.612859231728153 2.285238527315165 0 0 0
280 1 19.3908197138027 4.542445122399593 -3.1372616300232847 0 0 0
281 1 18.94906168768054 6.297250456993103 -1.3297609236458927 0 0 0
282 1 18.507783650098503 8.05170478811369 0.4777390739873673 0 0 0
283 1 18.067411702843216 9.80576760559475 2.2852405005066827 0 0 0
284 1 20.701664090118953 6.736100410846225 -3.137260917728346 0 0 0
285 1 20.261348768390278 8.489984914610863 -1.3297607227219972 0 0 0
286 1 19.82182725457301 10.243466676898246 0.47773981786173086 0 0 0
287 1 19.383212229184963 11.9966283569669 2.2852397577009635 0 0 0
288 1 22.015479097126402 8.927901067217766 -3.13726049982433 0 0 0
289 1 21.57662323716052 10.681034332049178 -1.3297600272150216 0 0 0
290 1 21.138505073948025 12.43387120409007 0.4777400890241106 0 0 0
291 1 20.70112802779458 14.186506970824796 2.285240679555061 0 0 0
292 1 23.331571316143638 11.118550040791517 -3.137260254593379 0 0 0
293 1 22.89380826248275 12.871234645722575 -1.3297601609538516 0 0 0
294 1 -2.9936367230500025 -10.36692703658829 2.272808719927633 0 0 0
295 1 24.64897627768501 13.3087394778206 -3.1372601461966303 0 0 0
296 1 7.536521755872144 14.649906920613487 0.4777151417118271 0 0 0
297 1 7.0958907069804695 -13.409662452073112 2.285542438174696 0 0 0
298 1 9.292633428457108 -14.72737167169437 -1.329803267041624 0 0 0
299 1 8.852803008459034 -12.975299329964045 0.47778184510861715 0 0 0
300 1 8.413185364154856 -11.225238505917478 2.284920117438307 0 0 0
301 1 11.04848846001731 -14.294251800641538 -3.137260431550819 0 0 0
302 1 10.610359082047822 -12.541740411563959 -1.3296718369785656 0 0 0
303 1 10.17299499548551 -10.791165781636204 0.47775610401565727 0 0 0
304 1 9.736871607956076 -9.042887068542864 2.285173997376187 0 0 0
305 1 12.36749287522855 -12.108020468162481 -3.137257763147483 0 0 0
306 1 11.931507193530635 -10.3568916345858 -1.3297769553912364 0 0 0
307 1 11.49620335600892 -8.607154600204451 0.47770129303208153 0 0 0
308 1 11.060763747719022 -6.858481659660688 2.2852273200110464 0 0 0
309 1 13.689176440018912 -9.922133498743662 -3.1372471032317257 0 0 0
310 1 13.254151934744144 -8.171365975028209 -1.3297689571640599 0 0 0
311 1 12.819061964148915 -6.421330687334434 0.4777770304634605 0 0 0
312 1 12.384012720670384 -4.671936790328072 2.2852350666258743 0 0 0
313 1 15.010824156139492 -7.735142705694556 -3.1372703941818156 0 0 0
314 1 14.575695468494047 -5.984072843480355 -1.3297637486326688 0 0 0
315 1 14.140378716045689 -4.233339076324883 0.4777271617794064 0 0 0
316 1 13.704637554675514 -2.482678314795413 2.2852359510275795 0 0 0
317 1 16.331061160915624 -5.546438060475632 -3.1372557443195244 0 0 0
318 1 15.895172350667096 -3.7945700562926827 -1.3297626101868492 0 0 0
319 1 15.458579856702926 -2.042569194641148 0.47773513494671876 0 0 0
320 1 15.021002818562266 -0.2901238511212494 2.2852361648143518 0 0 0
321 1 17.648627014173854 -3.3555137873972836 -3.1372618667952064 0 0 0
322 1 17.21109587367546 -1.6024121981299917 -1.3297622442749646 0 0 0
323 1 16.77236542979992 0.15117968747299138 0.4777378803099509 0 0 0
324 1 16.332187579889208 1.9054844181456492 2.2852372979144095 0 0 0
325 1 18.962641534946158 -1.1622736537695708 -3.137262018229866 0 0 0
326 1 18.523015603736795 0.592093987026308 -1.3297620001388941 0 0 0
327 1 18.082114097977367 2.3469296954454304 0.477738442337198 0 0 0
328 1 17.640118211210265 4.10215124400335 2.285238148243358 0 0 0
329 1 20.27356756705686 1.0324762714542963 -3.1372615331256997 0 0 0
330 1 19.83249292118977 2.78744932148677 -1.329761540306192 0 0 0
331 1 19.390818695416 4.542445755139431 0.47773886487445943 0 0 0
332 1 18.94906083611251 6.297250246321566 2.28523872194933 0 0 0
333 1 21.583599542222018 3.227127752894768 -3.137261158313247 0 0 0
334 1 21.142534836774914 4.981789682604363 -1.3297610269301545 0 0 0
335 1 20.701665046062345 6.736100038160314 0.4777392245309717 0 0 0
336 1 20.261348889999567 8.489984490723332 2.285239654360509 0 0 0
337 1 22.89507449517488 5.420459533527277 -3.1372608248022797 0 0 0
338 1 22.455007848778195 7.1743896406710785 -1.3297607482937412 0 0 0
339 1 22.015478447648093 8.927901314156005 0.4777395816480609 0 0 0
340 1 21.576622757682927 10.681034508382359 2.2852396451224006 0 0 0
341 1 24.208830976197234 7.612336217191233 -3.137260579740283 0 0 0
342 1 23.76992126056399 9.365609352704764 -1.3297603738481798 0 0 0
343 1 23.33157171226182 11.118549926796538 0.47773977918943844 0 0 0
344 1 22.89380862186907 12.871234425102363 2.2852400595493894 0 0 0
345 1 25.524503160924837 9.80322947856522 -3.1372604105798687 0 0 0
346 1 25.086515316687326 11.556085954369534 -1.3297603212992886 0 0 0
347 1 24.648976084827964 13.308739521653754 0.4777398263573516 0 0 0
348 1 26.841345015466572 11.993700940936213 -3.1372603195096542 0 0 0
349 1 26.403913447344536 13.74640529986346 -1.3297602237144803 0 0 0
350 1 28.15856900377051 14.184242097712177 -3.137260314697635 0 0 0
351 1 9.292737809732671 -14.727462319508431 2.2853003369000056 0 0 0
352 1 11.04831867902503 -14.294209349018178 0.47775271415130294 0 0 0
353 1 10.610220774835526 -12.541646613554375 2.2851664087712105 0 0 0
354 1 12.804295052445852 -13.860572136560705 -1.3297368580178877 0 0 0
355 1 12.367574924140953 -12.108020017311494 0.4777472399246582 0 0 0
356 1 11.931646265599923 -10.356950700753309 2.2852658393361835 0 0 0
357 1 14.560394383942779 -13.426227647527929 -3.137257952945122 0 0 0
358 1 14.124483480072996 -11.673738277767168 -1.3297681408947866 0 0 0
359 1 13.689175401586752 -9.92213363589186 0.4777322382950338 0 0 0
360 1 13.254053426857368 -8.17134411690521 2.2852518914173228 0 0 0
361 1 15.881020441714142 -11.238659566438459 -3.1372555099225576 0 0 0
362 1 15.445869486426105 -9.486671032993367 -1.3297588412206978 0 0 0
363 1 15.01081837569943 -7.7351452994891625 0.4777514938946602 0 0 0
364 1 14.575734614293694 -5.9840746007355765 2.285242375774382 0 0 0
365 1 17.20175427896794 -9.05046810472138 -3.1372624685489625 0 0 0
366 1 16.766499026381013 -7.298371928799527 -1.3297590932666221 0 0 0
367 1 16.33105817592262 -5.546439474277589 0.4777340957116366 0 0 0
368 1 15.895168987513529 -3.794570194092895 2.2852390243649987 0 0 0
369 1 18.521267104963215 -6.86097327273883 -3.1372583826589757 0 0 0
370 1 18.085255404635276 -5.108322343104415 -1.3297604319243155 0 0 0
371 1 17.64862625899393 -3.3555146304697896 0.4777388718584151 0 0 0
372 1 17.21109357546034 -1.6024127579343777 2.2852380646737456 0 0 0
373 1 19.838501590761254 -4.669737503394856 -3.1372612925938923 0 0 0
374 1 19.401065980245036 -2.9161946021862093 -1.329761097302861 0 0 0
375 1 18.962640946392654 -1.1622737069682323 0.47773873170349296 0 0 0
376 1 18.523015258263825 0.5920939143470658 2.28523818640664 0 0 0
377 1 21.152851352077136 -2.4767213198148994 -3.1372611380983706 0 0 0
378 1 20.713719275751814 -0.7222862104439862 -1.3297612798793803 0 0 0
379 1 20.273567796754506 1.0324759689559304 0.4777385805583414 0 0 0
380 1 19.832493120648707 2.7874493500017774 2.285238528017624 0 0 0
381 1 22.464771229147914 -0.28257128282471555 -3.1372610488548442 0 0 0
382 1 22.024456617087466 1.4722755022655267 -1.329761160086104 0 0 0
383 1 21.583599164535812 3.227127899306401 0.47773881537365737 0 0 0
384 1 21.142534895115446 4.981789828229845 2.28523889979421 0 0 0
385 1 23.775898671675023 1.9115359202451518 -3.1372609443674513 0 0 0
386 1 23.33546290040661 3.6661397536695457 -1.3297609239327226 0 0 0
387 1 22.895074779689224 5.420459388985593 0.4777391225813852 0 0 0
388 1 22.45500803181733 7.174389608598295 2.285239375457797 0 0 0
389 1 25.087988272005234 4.104673539897766 -3.1372607810430635 0 0 0
390 1 24.64822789993285 5.858688579085117 -1.329760727602675 0 0 0
391 1 24.208830753604545 7.612336294179785 0.4777394032485258 0 0 0
392 1 23.769921166228755 9.365609451208508 2.2852395245763506 0 0 0
393 1 26.40181158343674 6.296655393717215 -3.137260622861979 0 0 0
394 1 25.9629448854095 8.050099635761383 -1.329760512992024 0 0 0
395 1 25.524503294033593 9.80322943453478 0.4777395836600178 0 0 0
396 1 25.086515451041734 11.556085901214134 2.2852397525046793 0 0 0
397 1 27.717210174905574 8.487795287258427 -3.1372604984901895 0 0 0
398 1 27.279100640779774 10.240852309245048 -1.3297604265186218 0 0 0
399 1 26.84134494489527 11.993700957627103 0.4777396666714376 0 0 0
400 1 26.40391335131403 13.746405346263726 2.2852397347000717 0 0 0
401 1 29.03362530955971 10.678541882223888 -3.1372604208083272 0 0 0
402 1 28.59599002365769 12.43143530414528 -1.3297603547276409 0 0 0
403 1 28.15856903240757 14.18424209264028 0.4777396972692958 0 0 0
404 1 30.35041168983534 12.869310740714324 -3.137260393092416 0 0 0
405 1 -3.8504512598126013 -14.323548759761174 -3.136548818420299 0 0 0
406 1 12.804252483476773 -13.860545177870877 2.2852253396117166 0 0 0
407 1 14.997125184301638 14.630590457982551 -1.3297526656745629 0 0 0
408 1 14.560423307118072 -13.426231161363269 0.4777435987211952 0 0 0
409 1 14.124524969969968 -11.673757401728054 2.2852540963890617 0 0 0
410 1 16.75283517000061 -14.74395354375439 -3.1372587109697694 0 0 0
411 1 16.31657984528205 -12.991101026109035 -1.3297618283669757 0 0 0
412 1 15.88101365647131 -11.238660121144887 0.4777390897698698 0 0 0
413 1 15.445838394973592 -9.48666224103801 2.285241620049634 0 0 0
414 1 18.07259752170941 -12.555187120753198 -3.1372581849780854 0 0 0
415 1 17.637039082773597 -10.802746468378736 -1.3297581053259195 0 0 0
416 1 17.201752755279443 -9.0504685533455 0.4777437733931735 0 0 0
417 1 16.76651432542741 -7.29837382267882 2.2852391527476925 0 0 0
418 1 19.392542940423454 -10.36607146159998 -3.1372604165890214 0 0 0
419 1 18.95694185221369 -8.61354442386752 -1.3297595352700162 0 0 0
420 1 18.521267189240703 -6.86097317560071 0.47773786035691757 0 0 0
421 1 18.085251837252684 -5.108322342444778 2.285238728755331 0 0 0
422 1 20.711469378936215 -8.175959130450128 -3.1372594630776525 0 0 0
423 1 20.275213800719882 -6.4229734317608145 -1.3297604351513812 0 0 0
424 1 19.838501917903443 -4.6697374386536055 0.47773963896137983 0 0 0
425 1 19.4010656153401 -2.916194668818461 2.285238579749368 0 0 0
426 1 22.028480725046023 -5.984473533987574 -3.1372607372932166 0 0 0
427 1 21.59104426309048 -4.230783359506853 -1.329760814808241 0 0 0
428 1 21.152851388440382 -2.4767211816754955 0.4777389994934641 0 0 0
429 1 20.713719459822386 -0.7222861538363858 2.2852386452119364 0 0 0
430 1 23.343144320029623 -3.7916066934678074 -3.1372607107737185 0 0 0
431 1 22.90434785929662 -2.0372385160526587 -1.32976094284982 0 0 0
432 1 22.464771383444486 -0.2825713147210358 0.47773889003750397 0 0 0
433 1 22.024456720983792 1.4722755158511962 2.285238816828016 0 0 0
434 1 24.65586394854388 -1.5978733533530605 -3.137260791201695 0 0 0