ITEM: TIMESTEP
0
ITEM: NUMBER OF ATOMS
3654
ITEM: BOX BOUNDS xy xz yz mm pp pp
-1.0009999999999999e+02 1.0009999999999999e+02 0.0000000000000000e+00
-1.4905042650000000e+01 1.4905042650000000e+01 0.0000000000000000e+00
-3.6150000000000002e+00 3.6150000000000002e+00 0.0000000000000000e+00
ITEM: ATOMS id type x y z c_csym c_energy
1 1 0.438383 12.8459 -2.7075 0.00295099 -3.59794
2 1 -0.438383 -13.4495 -2.7075 3.32121 -3.09366
3 1 -1.993e-07 7.10605 -2.7075 3.84478e-05 -3.53955
4 1 1.31515 9.32622 -2.7075 5.5939e-05 -3.53938
5 1 0.876766 11.0843 -0.9 9.44046e-05 -3.53735
6 1 0.438383 12.8459 0.9075 0.00295099 -3.57211
7 2 -1.75353 -14.7677 1.8075 10.3533 11.198
8 1 2.6303 11.5502 -2.7075 6.32221e-05 -3.53806
9 1 2.19192 13.3136 -0.9 0.00154889 -3.54333
10 1 3.94545 13.7764 -2.7075 0.000361129 -3.5426
11 1 0.876766 3.60334 -2.7075 1.5552e-05 -3.53975
12 1 0.438383 5.35404 -0.9 2.31617e-05 -3.53967
13 1 -1.993e-07 7.10605 0.9075 3.84478e-05 -3.53955
14 1 2.19192 5.81712 -2.7075 2.35557e-05 -3.5397
15 1 1.75353 7.57068 -0.9 3.50478e-05 -3.53957
16 1 1.31515 9.32622 0.9075 5.5939e-05 -3.53938
17 1 0.876766 11.0843 2.715 9.44046e-05 -3.53735
18 1 3.50706 8.03338 -2.7075 2.95203e-05 -3.53962
19 1 3.06868 9.79038 -0.9 4.22674e-05 -3.53945
20 1 2.6303 11.5502 0.9075 6.32221e-05 -3.53806
21 1 2.19192 13.3136 2.715 0.00154889 -3.54387
22 1 4.82221 10.2518 -2.7075 3.16508e-05 -3.53958
23 1 4.38383 12.0125 -0.9 4.39684e-05 -3.53902
24 1 3.94545 13.7764 0.9075 0.000361129 -3.54314
25 1 6.13736 12.4715 -2.7075 0.00026157 -3.54039
26 1 5.69898 14.2352 -0.9 0.000607743 -3.54231
27 1 -3.94545 -14.4001 0.9075 3.33405 -3.49088
28 1 0.438383 -2.10201 -2.7075 1.03567e-05 -3.5365
29 1 -2.84217e-14 -0.355789 -0.9 8.27703e-06 -3.53981
30 1 1.75353 0.105729 -2.7075 1.14447e-05 -3.53985
31 1 1.31515 1.85389 -0.9 1.21686e-05 -3.53981
32 1 0.876766 3.60334 0.9075 1.5552e-05 -3.53975
33 1 0.438383 5.35404 2.715 2.31617e-05 -3.53967
34 1 3.06868 2.31482 -2.7075 1.43192e-05 -3.53984
35 1 2.6303 4.06522 -0.9 1.73472e-05 -3.53978
36 1 2.19192 5.81712 0.9075 2.35557e-05 -3.5397
37 1 1.75353 7.57068 2.715 3.50478e-05 -3.53957
38 1 4.38383 4.52562 -2.7075 1.72361e-05 -3.53982
39 1 3.94545 6.27857 -0.9 2.17817e-05 -3.53974
40 1 3.50706 8.03338 0.9075 2.95203e-05 -3.53962
41 1 3.06868 9.79038 2.715 4.22674e-05 -3.53945
42 1 5.69898 6.73819 -2.7075 1.8908e-05 -3.53979
43 1 5.2606 8.4939 -0.9 2.38931e-05 -3.53969
44 1 4.82221 10.2518 0.9075 3.16508e-05 -3.53958
45 1 4.38383 12.0125 2.715 4.39684e-05 -3.53902
46 1 7.01413 8.95222 -2.7075 1.90309e-05 -3.53976
47 1 6.57575 10.7106 -0.9 2.40531e-05 -3.53934
48 1 6.13736 12.4715 0.9075 0.00026157 -3.54039
49 1 5.69898 14.2352 2.715 0.000607743 -3.54231
50 1 8.32928 11.167 -2.7075 1.85218e-05 -3.53897
51 1 7.8909 12.9277 -0.9 0.000689574 -3.54225
52 1 -0.876766 -11.7248 -0.9 1.73296 -3.44553
53 1 9.64443 13.3816 -2.7075 0.000452053 -3.54242
54 1 1.993e-07 -7.79177 -2.7075 6.41148 -3.44728
55 1 1.31515 -5.58956 -2.7075 6.43078 -3.45002
56 1 0.876766 -3.84671 -0.9 1.48406e-05 -3.53324
57 1 0.438383 -2.10201 0.9075 1.03567e-05 -3.5365
58 1 -2.84217e-14 -0.355789 2.715 8.27703e-06 -3.53981
59 1 2.6303 -3.38626 -2.7075 1.59823e-05 -3.53676
60 1 2.19192 -1.64104 -0.9 1.27394e-05 -3.53987
61 1 1.75353 0.105729 0.9075 1.14447e-05 -3.53985
62 1 1.31515 1.85389 2.715 1.21686e-05 -3.53981
63 1 3.94545 -1.18162 -2.7075 1.41204e-05 -3.53991
64 1 3.50707 0.565866 -0.9 1.34061e-05 -3.53988
65 1 3.06868 2.31482 0.9075 1.43192e-05 -3.53984
66 1 2.6303 4.06522 2.715 1.73472e-05 -3.53978
67 1 5.2606 1.02454 -2.7075 1.39357e-05 -3.53992
68 1 4.82221 2.77431 -0.9 1.48223e-05 -3.53988
69 1 4.38383 4.52562 0.9075 1.72361e-05 -3.53982
70 1 3.94545 6.27857 2.715 2.17817e-05 -3.53974
71 1 6.57575 3.23228 -2.7075 1.40239e-05 -3.53992
72 1 6.13736 4.98439 -0.9 1.57929e-05 -3.53986
73 1 5.69898 6.73819 0.9075 1.8908e-05 -3.53979
74 1 5.2606 8.4939 2.715 2.38931e-05 -3.53969
75 1 7.8909 5.44147 -2.7075 1.36857e-05 -3.53991
76 1 7.45251 7.19592 -0.9 1.57745e-05 -3.53984
77 1 7.01413 8.95222 0.9075 1.90309e-05 -3.53976
78 1 6.57575 10.7106 2.715 2.40531e-05 -3.53934
79 1 9.20605 7.6518 -2.7075 1.28428e-05 -3.5399
80 1 8.76766 9.40843 -0.9 1.5063e-05 -3.53983
81 1 8.32928 11.167 0.9075 1.85218e-05 -3.53897
82 1 7.8909 12.9277 2.715 0.000689574 -3.54225
83 1 10.5212 9.86272 -2.7075 1.18752e-05 -3.5399
84 1 10.0828 11.6212 -0.9 1.43357e-05 -3.53925
85 1 9.64443 13.3816 0.9075 0.000452053 -3.54242
86 1 11.8363 12.0736 -2.7075 1.10944e-05 -3.53973
87 1 11.398 13.8335 -0.9 0.000116431 -3.54169
88 1 13.1515 14.2837 -2.7075 0.000214292 -3.54147
89 1 0.876767 -11.2616 -2.7075 6.39068 -3.44276
90 1 0.438383 -9.52869 -0.9 7.4967e-05 -3.53031
91 1 1.993e-07 -7.79177 0.9075 6.41148 -3.44728
92 1 2.19192 -9.0681 -2.7075 5.71628e-05 -3.53266
93 1 1.75353 -7.33016 -0.9 3.53409e-05 -3.53275
94 1 1.31515 -5.58956 0.9075 6.43078 -3.45002
95 1 0.876766 -3.84671 2.715 6.43724 -3.44946
96 1 3.50707 -6.87121 -2.7075 3.06208e-05 -3.53632
97 1 3.06868 -5.12973 -0.9 2.16076e-05 -3.54079
98 1 2.6303 -3.38626 0.9075 1.59823e-05 -3.53676
99 1 2.19192 -1.64104 2.715 1.27394e-05 -3.54029
100 1 4.82221 -4.67188 -2.7075 2.02681e-05 -3.53991
101 1 4.38383 -2.92757 -0.9 1.63488e-05 -3.53992
102 1 3.94545 -1.18162 0.9075 1.41204e-05 -3.53991
103 1 3.50707 0.565866 2.715 1.34061e-05 -3.53988
104 1 6.13736 -2.47051 -2.7075 1.57064e-05 -3.53996
105 1 5.69898 -0.723731 -0.9 1.42662e-05 -3.53995
106 1 5.2606 1.02454 0.9075 1.39357e-05 -3.53992
107 1 4.82221 2.77431 2.715 1.48223e-05 -3.53988
108 1 7.45251 -0.267334 -2.7075 1.34007e-05 -3.53998
109 1 7.01413 1.48173 -0.9 1.32857e-05 -3.53996
110 1 6.57575 3.23228 0.9075 1.40239e-05 -3.53992
111 1 6.13736 4.98439 2.715 1.57929e-05 -3.53986
112 1 8.76766 1.93745 -2.7075 1.18955e-05 -3.53999
113 1 8.32928 3.6887 -0.9 1.2452e-05 -3.53996
114 1 7.8909 5.44147 0.9075 1.36857e-05 -3.53991
115 1 7.45251 7.19592 2.715 1.57745e-05 -3.53984
116 1 10.0828 4.14359 -2.7075 1.05765e-05 -3.53999
117 1 9.64443 5.8969 -0.9 1.1423e-05 -3.53995
118 1 9.20605 7.6518 0.9075 1.28428e-05 -3.5399
119 1 8.76766 9.40843 2.715 1.5063e-05 -3.53983
120 1 11.398 6.35075 -2.7075 9.30264e-06 -3.53999
121 1 10.9596 8.10594 -0.9 1.02983e-05 -3.53995
122 1 10.5212 9.86272 0.9075 1.18752e-05 -3.5399
123 1 10.0828 11.6212 2.715 1.43357e-05 -3.53925
124 1 12.7131 8.5585 -2.7075 8.17902e-06 -3.53999
125 1 12.2747 10.3153 -0.9 9.32768e-06 -3.53998
126 1 11.8363 12.0736 0.9075 1.10944e-05 -3.53973
127 1 11.398 13.8335 2.715 0.000116431 -3.54169
128 1 14.0283 10.7663 -2.7075 7.30376e-06 -3.53982
129 1 13.5899 12.5244 -0.9 7.0566e-05 -3.54054
130 1 13.1515 14.2837 0.9075 0.000214292 -3.54147
131 1 15.3434 12.9738 -2.7075 0.000207749 -3.54158
132 1 -2.6303 -12.1949 0.9075 3.33798 -3.34831
133 1 3.986e-07 14.643 -0.9 1.56281 -3.10681
134 1 1.75353 -14.7146 -2.7075 0.0144635 -3.55217
135 1 1.31515 -12.9901 -0.9 6.41531 -3.46503
136 1 0.876767 -11.2616 0.9075 6.39094 -3.35197
137 1 0.438383 -9.52869 2.715 6.39948 -3.41916
138 1 3.06868 -12.535 -2.7075 0.000143559 -3.53314
139 1 2.6303 -10.8031 -0.9 9.32033e-05 -3.53719
140 1 2.19192 -9.0681 0.9075 5.71628e-05 -3.53315
141 1 1.75353 -7.33016 2.715 6.42374 -3.45222
142 1 4.38383 -10.3476 -2.7075 6.41197e-05 -3.53965
143 1 3.94545 -8.61053 -0.9 4.44937e-05 -3.53976
144 1 3.50707 -6.87121 0.9075 3.06208e-05 -3.53632
145 1 3.06868 -5.12973 2.715 2.16076e-05 -3.51518
146 1 5.69898 -8.15525 -2.7075 3.47149e-05 -3.53985
147 1 5.2606 -6.41446 -0.9 2.62694e-05 -3.53989
148 1 4.82221 -4.67188 0.9075 2.02681e-05 -3.53991
149 1 4.38383 -2.92757 2.715 1.63488e-05 -3.53992
150 1 7.01413 -5.95951 -2.7075 2.20934e-05 -3.53995
151 1 6.57575 -4.21577 -0.9 1.82881e-05 -3.53996
152 1 6.13736 -2.47051 0.9075 1.57064e-05 -3.53996
153 1 5.69898 -0.723731 2.715 1.42662e-05 -3.53995
154 1 8.32928 -3.7612 -2.7075 1.59108e-05 -3.54
155 1 7.8909 -2.01497 -0.9 1.42857e-05 -3.54
156 1 7.45251 -0.267334 0.9075 1.34007e-05 -3.53998
157 1 7.01413 1.48173 2.715 1.32857e-05 -3.53996
158 1 9.64443 -1.56083 -2.7075 1.24413e-05 -3.54003
159 1 9.20605 0.187632 -0.9 1.19123e-05 -3.54002
160 1 8.76766 1.93745 0.9075 1.18955e-05 -3.53999
161 1 8.32928 3.6887 2.715 1.2452e-05 -3.53996
162 1 10.9596 0.641244 -2.7075 1.01653e-05 -3.54004
163 1 10.5212 2.39174 -0.9 1.01808e-05 -3.54002
164 1 10.0828 4.14359 0.9075 1.05765e-05 -3.53999
165 1 9.64443 5.8969 2.715 1.1423e-05 -3.53995
166 1 12.2747 2.84468 -2.7075 8.44079e-06 -3.54005
167 1 11.8363 4.59704 -0.9 8.71557e-06 -3.54002
168 1 11.398 6.35075 0.9075 9.30264e-06 -3.53999
169 1 10.9596 8.10594 2.715 1.02983e-05 -3.53995
170 1 13.5899 5.04912 -2.7075 7.04003e-06 -3.54005
171 1 13.1515 6.80314 -0.9 7.45809e-06 -3.54003
172 1 12.7131 8.5585 0.9075 8.17902e-06 -3.53999
173 1 12.2747 10.3153 2.715 9.32768e-06 -3.53998
174 1 14.905 7.25419 -2.7075 5.92278e-06 -3.54006
175 1 14.4666 9.00962 -0.9 6.45728e-06 -3.54003
176 1 14.0283 10.7663 0.9075 7.30376e-06 -3.53982
177 1 13.5899 12.5244 2.715 7.0566e-05 -3.54054
178 1 16.2202 9.45948 -2.7075 5.08113e-06 -3.54006
179 1 15.7818 11.2161 -0.9 5.70746e-06 -3.53959
180 1 15.3434 12.9738 0.9075 0.000207749 -3.54158
181 1 -2.19192 -13.9167 -0.9 1.57375 8.17528
182 1 17.5353 11.6646 -2.7075 4.45734e-06 -3.53973
183 1 17.0969 13.422 -0.9 0.000142278 -3.5416
184 1 18.8505 13.8693 -2.7075 3.77577e-05 -3.54113
185 1 3.986e-07 14.643 2.715 3.09214 -3.00832
186 1 1.75353 -14.7146 0.9075 6.26292 -3.47162
187 1 1.31515 -12.9901 2.715 6.41725 -3.34988
188 1 3.50707 -14.2645 -0.9 0.00694648 -3.53591
189 1 3.06868 -12.535 0.9075 0.000143559 -3.50755
190 1 2.6303 -10.8031 2.715 9.32033e-05 -3.51167
191 1 5.2606 -13.8159 -2.7075 0.00251273 -3.53863
192 1 4.82221 -12.0825 -0.9 8.70831e-05 -3.53752
193 1 4.38383 -10.3476 0.9075 6.41197e-05 -3.53965
194 1 3.94545 -8.61053 2.715 4.44937e-05 -3.54032
195 1 6.57575 -11.6318 -2.7075 5.61965e-05 -3.53918
196 1 6.13736 -9.89428 -0.9 4.53112e-05 -3.53978
197 1 5.69898 -8.15525 0.9075 3.47149e-05 -3.53985
198 1 5.2606 -6.41446 2.715 2.62694e-05 -3.53989
199 1 7.8909 -9.44256 -2.7075 3.27812e-05 -3.53988
200 1 7.45251 -7.70174 -0.9 2.7078e-05 -3.53992
201 1 7.01413 -5.95951 0.9075 2.20934e-05 -3.53995
202 1 6.57575 -4.21577 2.715 1.82881e-05 -3.53996
203 1 9.20605 -7.24966 -2.7075 2.11156e-05 -3.53998
204 1 8.76766 -5.50608 -0.9 1.82366e-05 -3.53999
205 1 8.32928 -3.7612 0.9075 1.59108e-05 -3.54
206 1 7.8909 -2.01497 2.715 1.42857e-05 -3.54
207 1 10.5212 -5.05395 -2.7075 1.48236e-05 -3.54003
208 1 10.0828 -3.308 -0.9 1.34354e-05 -3.54004
209 1 9.64443 -1.56083 0.9075 1.24413e-05 -3.54003
210 1 9.20605 0.187632 2.715 1.19123e-05 -3.54002
211 1 11.8363 -2.85602 -2.7075 1.10846e-05 -3.54007
212 1 11.398 -1.10798 -0.9 1.0482e-05 -3.54006
213 1 10.9596 0.641244 0.9075 1.01653e-05 -3.54004
214 1 10.5212 2.39174 2.715 1.01808e-05 -3.54002
215 1 13.1515 -0.656327 -2.7075 8.61706e-06 -3.54008
216 1 12.7131 1.09359 -0.9 8.42149e-06 -3.54007
217 1 12.2747 2.84468 0.9075 8.44079e-06 -3.54005
218 1 11.8363 4.59704 2.715 8.71557e-06 -3.54002
219 1 14.4666 1.54475 -2.7075 6.83334e-06 -3.54009
220 1 14.0283 3.29635 -0.9 6.84797e-06 -3.54007
221 1 13.5899 5.04912 0.9075 7.04003e-06 -3.54005
222 1 13.1515 6.80314 2.715 7.45809e-06 -3.54003
223 1 15.7818 3.74686 -2.7075 5.4779e-06 -3.5401
224 1 15.3434 5.49995 -0.9 5.61592e-06 -3.54008
225 1 14.905 7.25419 0.9075 5.92278e-06 -3.54006
226 1 14.4666 9.00962 2.715 6.45728e-06 -3.54003
227 1 17.0969 5.94965 -2.7075 4.44796e-06 -3.5401
228 1 16.6586 7.70403 -0.9 4.67912e-06 -3.54008
229 1 16.2202 9.45948 0.9075 5.08113e-06 -3.54006
230 1 15.7818 11.2161 2.715 5.70746e-06 -3.53959
231 1 18.4121 8.15279 -2.7075 3.68854e-06 -3.5401
232 1 17.9737 9.90821 -0.9 3.99328e-06 -3.54009
233 1 17.5353 11.6646 0.9075 4.45734e-06 -3.53973
234 1 17.0969 13.422 2.715 0.000142278 -3.5416
235 1 19.7272 10.356 -2.7075 3.13958e-06 -3.54012
236 1 19.2889 12.1122 -0.9 3.48385e-06 -3.53999
237 1 18.8505 13.8693 0.9075 3.77577e-05 -3.54113
238 1 21.0424 12.5589 -2.7075 2.54568e-05 -3.54049
239 1 20.604 14.3157 -0.9 7.84588e-05 -3.54099
240 2 -1.75353 -14.7677 -1.8075 10.3479 23.3221
241 1 3.50707 -14.2645 2.715 0.00694648 -3.53648
242 1 5.2606 -13.8159 0.9075 0.00251273 -3.53863
243 1 4.82221 -12.0825 2.715 8.70831e-05 -3.53752
244 1 7.45251 14.7063 -2.7075 0.0091367 -3.5407
245 1 7.01413 -13.3681 -0.9 0.000470734 -3.53682
246 1 6.57575 -11.6318 0.9075 5.61965e-05 -3.53918
247 1 6.13736 -9.89428 2.715 4.53112e-05 -3.53978
248 1 8.76766 -12.9209 -2.7075 4.12652e-05 -3.53681
249 1 8.32928 -11.1822 -0.9 3.80684e-05 -3.5399
250 1 7.8909 -9.44256 0.9075 3.27812e-05 -3.53988
251 1 7.45251 -7.70174 2.715 2.7078e-05 -3.53992
252 1 10.0828 -10.7335 -2.7075 2.67654e-05 -3.53993
253 1 9.64443 -8.99207 -0.9 2.41754e-05 -3.53996
254 1 9.20605 -7.24966 0.9075 2.11156e-05 -3.53998
255 1 8.76766 -5.50608 2.715 1.82366e-05 -3.53999
256 1 11.398 -8.54258 -2.7075 1.80964e-05 -3.54001
257 1 10.9596 -6.79876 -0.9 1.6463e-05 -3.54003
258 1 10.5212 -5.05395 0.9075 1.48236e-05 -3.54003
259 1 10.0828 -3.308 2.715 1.34354e-05 -3.54004
260 1 12.7131 -6.34888 -2.7075 1.28326e-05 -3.54006
261 1 12.2747 -4.60295 -0.9 1.19052e-05 -3.54007
262 1 11.8363 -2.85602 0.9075 1.10846e-05 -3.54007
263 1 11.398 -1.10798 2.715 1.0482e-05 -3.54006
264 1 14.0283 -4.15296 -2.7075 9.47435e-06 -3.54009
265 1 13.5899 -2.40515 -0.9 8.98646e-06 -3.54009
266 1 13.1515 -0.656327 0.9075 8.61706e-06 -3.54008
267 1 12.7131 1.09359 2.715 8.42149e-06 -3.54007
268 1 15.3434 -1.95528 -2.7075 7.19342e-06 -3.54011
269 1 14.905 -0.205765 -0.9 6.9602e-06 -3.5401
270 1 14.4666 1.54475 0.9075 6.83334e-06 -3.54009
271 1 14.0283 3.29635 2.715 6.84797e-06 -3.54007
272 1 16.6586 0.243793 -2.7075 5.55446e-06 -3.54012
273 1 16.2202 1.99483 -0.9 5.46792e-06 -3.54011
274 1 15.7818 3.74686 0.9075 5.4779e-06 -3.5401
275 1 15.3434 5.49995 2.715 5.61592e-06 -3.54008
276 1 17.9737 2.44391 -2.7075 4.33754e-06 -3.54013
277 1 17.5353 4.1963 -0.9 4.34502e-06 -3.54011
278 1 17.0969 5.94965 0.9075 4.44796e-06 -3.5401
279 1 16.6586 7.70403 2.715 4.67912e-06 -3.54008
280 1 19.2889 4.64477 -2.7075 3.43159e-06 -3.54013
281 1 18.8505 6.39832 -0.9 3.51112e-06 -3.54012
282 1 18.4121 8.15279 0.9075 3.68854e-06 -3.5401
283 1 17.9737 9.90821 2.715 3.99328e-06 -3.54009
284 1 20.604 6.84607 -2.7075 2.76979e-06 -3.54013
285 1 20.1656 8.60058 -0.9 2.90759e-06 -3.54012
286 1 19.7272 10.356 0.9075 3.13958e-06 -3.54012
287 1 19.2889 12.1122 2.715 3.48385e-06 -3.53999
288 1 21.9192 9.04753 -2.7075 2.2955e-06 -3.54014
289 1 21.4808 10.8028 -0.9 2.47259e-06 -3.54002
290 1 21.0424 12.5589 0.9075 2.54568e-05 -3.54049
291 1 20.604 14.3157 2.715 7.84588e-05 -3.54099
292 1 23.2343 11.2489 -2.7075 1.9526e-06 -3.53987
293 1 22.7959 13.0048 -0.9 7.48709e-05 -3.54111
294 1 -3.06868 -10.4631 2.715 5.5022 -3.44824
295 1 24.5495 13.4501 -2.7075 5.09747e-05 -3.5411
296 1 7.45251 14.7063 0.9075 0.0091367 -3.5407
297 1 7.01413 -13.3681 2.715 0.000470734 -3.53682
298 1 9.20605 -14.6591 -0.9 0.00410739 -3.54001
299 1 8.76766 -12.9209 0.9075 4.12652e-05 -3.53681
300 1 8.32928 -11.1822 2.715 3.80684e-05 -3.5399
301 1 10.9596 -14.2145 -2.7075 0.00204108 -3.54007
302 1 10.5212 -12.4742 -0.9 2.80863e-05 -3.53807
303 1 10.0828 -10.7335 0.9075 2.67654e-05 -3.53993
304 1 9.64443 -8.99207 2.715 2.41754e-05 -3.53996
305 1 12.2747 -12.0279 -2.7075 1.98398e-05 -3.53891
306 1 11.8363 -10.2856 -0.9 1.93549e-05 -3.54
307 1 11.398 -8.54258 0.9075 1.80964e-05 -3.54001
308 1 10.9596 -6.79876 2.715 1.6463e-05 -3.54003
309 1 13.5899 -9.83825 -2.7075 1.42943e-05 -3.54005
310 1 13.1515 -8.09393 -0.9 1.36993e-05 -3.54006
311 1 12.7131 -6.34888 0.9075 1.28326e-05 -3.54006
312 1 12.2747 -4.60295 2.715 1.19052e-05 -3.54007
313 1 14.905 -7.646 -2.7075 1.04587e-05 -3.54009
314 1 14.4666 -5.89988 -0.9 1.00007e-05 -3.54009
315 1 14.0283 -4.15296 0.9075 9.47435e-06 -3.54009
316 1 13.5899 -2.40515 2.715 8.98646e-06 -3.54009
317 1 16.2202 -5.45166 -2.7075 7.7937e-06 -3.54011
318 1 15.7818 -3.70388 -0.9 7.48992e-06 -3.54011
319 1 15.3434 -1.95528 0.9075 7.19342e-06 -3.54011
320 1 14.905 -0.205765 2.715 6.9602e-06 -3.5401
321 1 17.5353 -3.25562 -2.7075 5.89475e-06 -3.54013
322 1 17.0969 -1.50633 -0.9 5.70781e-06 -3.54013
323 1 16.6586 0.243793 0.9075 5.55446e-06 -3.54012
324 1 16.2202 1.99483 2.715 5.46792e-06 -3.54011
325 1 18.8505 -1.05821 -2.7075 4.50397e-06 -3.54014
326 1 18.4121 0.692434 -0.9 4.39876e-06 -3.54013
327 1 17.9737 2.44391 0.9075 4.33754e-06 -3.54013
328 1 17.5353 4.1963 2.715 4.34502e-06 -3.54011
329 1 20.1656 1.14024 -2.7075 3.46886e-06 -3.54015
330 1 19.7272 2.8921 -0.9 3.42477e-06 -3.54014
331 1 19.2889 4.64477 0.9075 3.43159e-06 -3.54013
332 1 18.8505 6.39832 2.715 3.51112e-06 -3.54012
333 1 21.4808 3.33946 -2.7075 2.69952e-06 -3.54015
334 1 21.0424 5.09237 -0.9 2.70663e-06 -3.54014
335 1 20.604 6.84607 0.9075 2.76979e-06 -3.54013
336 1 20.1656 8.60058 2.715 2.90759e-06 -3.54012
337 1 22.7959 5.53918 -2.7075 2.13661e-06 -3.54015
338 1 22.3575 7.29299 -0.9 2.18769e-06 -3.54015
339 1 21.9192 9.04753 0.9075 2.2955e-06 -3.54014
340 1 21.4808 10.8028 2.715 2.47259e-06 -3.54002
341 1 24.1111 7.73918 -2.7075 1.73235e-06 -3.54016
342 1 23.6727 9.49372 -0.9 1.81707e-06 -3.54015
343 1 23.2343 11.2489 0.9075 1.9526e-06 -3.53987
344 1 22.7959 13.0048 2.715 7.48709e-05 -3.54111
345 1 25.4262 9.93924 -2.7075 1.44333e-06 -3.54016
346 1 24.9878 11.6944 -0.9 1.54736e-06 -3.53995
347 1 24.5495 13.4501 0.9075 5.09747e-05 -3.5411
348 1 26.7414 12.1392 -2.7075 1.23119e-06 -3.5401
349 1 26.303 13.8948 -0.9 1.35073e-05 -3.54081
350 1 28.0565 14.3389 -2.7075 3.12808e-05 -3.54072
351 1 9.20605 -14.6591 2.715 0.00410739 -3.54001
352 1 10.9596 -14.2145 0.9075 0.00204108 -3.54007
353 1 10.5212 -12.4742 2.715 2.80863e-05 -3.53807
354 1 12.7131 -13.7699 -0.9 0.00078024 -3.53948
355 1 12.2747 -12.0279 0.9075 1.98398e-05 -3.53891
356 1 11.8363 -10.2856 2.715 1.93549e-05 -3.54
357 1 14.4666 -13.3254 -2.7075 0.000149009 -3.53843
358 1 14.0283 -11.582 -0.9 1.44104e-05 -3.53975
359 1 13.5899 -9.83825 0.9075 1.42943e-05 -3.54005
360 1 13.1515 -8.09393 2.715 1.36993e-05 -3.54006
361 1 15.7818 -11.1365 -2.7075 1.06888e-05 -3.54011
362 1 15.3434 -9.39148 -0.9 1.07254e-05 -3.54008
363 1 14.905 -7.646 0.9075 1.04587e-05 -3.54009
364 1 14.4666 -5.89988 2.715 1.00007e-05 -3.54009
365 1 17.0969 -8.94522 -2.7075 8.14467e-06 -3.54011
366 1 16.6586 -7.19873 -0.9 8.03629e-06 -3.54011
367 1 16.2202 -5.45166 0.9075 7.7937e-06 -3.54011
368 1 15.7818 -3.70388 2.715 7.48992e-06 -3.54011
369 1 18.4121 -6.75206 -2.7075 6.20676e-06 -3.54013
370 1 17.9737 -5.00416 -0.9 6.0759e-06 -3.54013
371 1 17.5353 -3.25562 0.9075 5.89475e-06 -3.54013
372 1 17.0969 -1.50633 2.715 5.70781e-06 -3.54013
373 1 19.7272 -4.55731 -2.7075 4.74084e-06 -3.54015
374 1 19.2889 -2.8081 -0.9 4.62739e-06 -3.54014
375 1 18.8505 -1.05821 0.9075 4.50397e-06 -3.54014
376 1 18.4121 0.692434 2.715 4.39876e-06 -3.54013
377 1 21.0424 -2.36126 -2.7075 3.62911e-06 -3.54016
378 1 20.604 -0.610856 -0.9 3.54368e-06 -3.54015
379 1 20.1656 1.14024 0.9075 3.46886e-06 -3.54015
380 1 19.7272 2.8921 2.715 3.42477e-06 -3.54014
381 1 22.3575 -0.164194 -2.7075 2.78589e-06 -3.54016
382 1 21.9192 1.58729 -0.9 2.73133e-06 -3.54016
383 1 21.4808 3.33946 0.9075 2.69952e-06 -3.54015
384 1 21.0424 5.09237 2.715 2.70663e-06 -3.54014
385 1 23.6727 2.03365 -2.7075 2.15168e-06 -3.54017
386 1 23.2343 3.78608 -0.9 2.12898e-06 -3.54016
387 1 22.7959 5.53918 0.9075 2.13661e-06 -3.54015
388 1 22.3575 7.29299 2.715 2.18769e-06 -3.54015
389 1 24.9878 4.23203 -2.7075 1.68258e-06 -3.54017
390 1 24.5495 5.98529 -0.9 1.69061e-06 -3.54016
391 1 24.1111 7.73918 0.9075 1.73235e-06 -3.54016
392 1 23.6727 9.49372 2.715 1.81707e-06 -3.54015
393 1 26.303 6.43076 -2.7075 1.34226e-06 -3.54017
394 1 25.8646 8.18471 -0.9 1.37654e-06 -3.54017
395 1 25.4262 9.93924 0.9075 1.44333e-06 -3.54016
396 1 24.9878 11.6944 2.715 1.54736e-06 -3.53995
397 1 27.6181 8.62965 -2.7075 1.09829e-06 -3.54017
398 1 27.1798 10.3842 -0.9 1.15107e-06 -3.54018
399 1 26.7414 12.1392 0.9075 1.23119e-06 -3.5401
400 1 26.303 13.8948 2.715 1.35073e-05 -3.54081
401 1 28.9333 10.8285 -2.7075 9.22037e-07 -3.5401
402 1 28.4949 12.5835 -0.9 1.05379e-05 -3.54042
403 1 28.0565 14.3389 0.9075 3.12808e-05 -3.54072
404 1 30.2484 13.0273 -2.7075 3.01951e-05 -3.54082
405 1 -3.94545 -14.4001 -2.7075 3.33405 -3.51635
406 1 12.7131 -13.7699 2.715 0.00078024 -3.53948
407 1 14.905 14.7413 -0.9 0.00287996 -3.54073
408 1 14.4666 -13.3254 0.9075 0.000149009 -3.53843
409 1 14.0283 -11.582 2.715 1.44104e-05 -3.53975
410 1 16.6586 -14.6256 -2.7075 0.0013556 -3.54022
411 1 16.2202 -12.8811 -0.9 1.02816e-05 -3.53837
412 1 15.7818 -11.1365 0.9075 1.06888e-05 -3.54011
413 1 15.3434 -9.39148 2.715 1.07254e-05 -3.54008
414 1 17.9737 -12.4369 -2.7075 7.73439e-06 -3.53903
415 1 17.5353 -10.6912 -0.9 8.05594e-06 -3.54011
416 1 17.0969 -8.94522 0.9075 8.14467e-06 -3.54011
417 1 16.6586 -7.19873 2.715 8.03629e-06 -3.54011
418 1 19.2889 -10.2463 -2.7075 6.14699e-06 -3.54013
419 1 18.8505 -8.49941 -0.9 6.24267e-06 -3.54013
420 1 18.4121 -6.75206 0.9075 6.20676e-06 -3.54013
421 1 17.9737 -5.00416 2.715 6.0759e-06 -3.54013
422 1 20.604 -8.05403 -2.7075 4.8205e-06 -3.54015
423 1 20.1656 -6.30592 -0.9 4.81463e-06 -3.54015
424 1 19.7272 -4.55731 0.9075 4.74084e-06 -3.54015
425 1 19.2889 -2.8081 2.715 4.62739e-06 -3.54014
426 1 21.9192 -5.86028 -2.7075 3.74949e-06 -3.54016
427 1 21.4808 -4.11104 -0.9 3.70454e-06 -3.54016
428 1 21.0424 -2.36126 0.9075 3.62911e-06 -3.54016
429 1 20.604 -0.610856 2.715 3.54368e-06 -3.54015
430 1 23.2343 -3.66533 -2.7075 2.90077e-06 -3.54017
431 1 22.7959 -1.91505 -0.9 2.8475e-06 -3.54017
432 1 22.3575 -0.164194 0.9075 2.78589e-06 -3.54016
433 1 21.9192 1.58729 2.715 2.73133e-06 -3.54016
434 1 24.5495 -1.4694 -2.7075 2.23787e-06 -3.54017
435 1 24.1111 0.281836 -0.9 2.19206e-06 -3.54017
436 1 23.6727 2.03365 0.9075 2.15168e-06 -3.54017
437 1 23.2343 3.78608 2.715 2.12898e-06 -3.54016
438 1 25.8646 0.727291 -2.7075 1.72855e-06 -3.54018
439 1 25.4262 2.47938 -0.9 1.69848e-06 -3.54017
440 1 24.9878 4.23203 0.9075 1.68258e-06 -3.54017
441 1 24.5495 5.98529 2.715 1.69061e-06 -3.54016
442 1 27.1798 2.92455 -2.7075 1.34497e-06 -3.54018
443 1 26.7414 4.67738 -0.9 1.33413e-06 -3.54018
444 1 26.303 6.43076 0.9075 1.34226e-06 -3.54017
445 1 25.8646 8.18471 2.715 1.37654e-06 -3.54017
446 1 28.4949 5.12219 -2.7075 1.06212e-06 -3.54018
447 1 28.0565 6.87566 -0.9 1.07007e-06 -3.54018
448 1 27.6181 8.62965 0.9075 1.09829e-06 -3.54017
449 1 27.1798 10.3842 2.715 1.15107e-06 -3.54018
450 1 29.8101 7.32005 -2.7075 8.56972e-07 -3.54018
451 1 29.3717 9.07407 -0.9 8.80217e-07 -3.54018
452 1 28.9333 10.8285 0.9075 9.22037e-07 -3.5401
453 1 28.4949 12.5835 2.715 1.05379e-05 -3.54042
454 1 31.1252 9.51801 -2.7075 7.08788e-07 -3.54018
455 1 30.6868 11.2725 -0.9 7.42013e-07 -3.54001
456 1 30.2484 13.0273 0.9075 3.01951e-05 -3.54082
457 1 -4.38383 -12.6748 2.715 10.02 -2.49745
458 1 32.4404 11.716 -2.7075 6.00002e-07 -3.54006
459 1 32.002 13.4707 -0.9 2.01747e-05 -3.5408
460 1 33.7555 13.9138 -2.7075 5.29689e-06 -3.54061
461 1 14.905 14.7413 2.715 0.00287996 -3.54073
462 1 16.6586 -14.6256 0.9075 0.0013556 -3.54022
463 1 16.2202 -12.8811 2.715 1.02816e-05 -3.53837
464 1 18.4121 -14.1825 -0.9 0.000696011 -3.54019
465 1 17.9737 -12.4369 0.9075 7.73439e-06 -3.53903
466 1 17.5353 -10.6912 2.715 8.05594e-06 -3.54011
467 1 20.1656 -13.7394 -2.7075 0.000274543 -3.53981
468 1 19.7272 -11.993 -0.9 5.89989e-06 -3.5395
469 1 19.2889 -10.2463 0.9075 6.14699e-06 -3.54013
470 1 18.8505 -8.49941 2.715 6.24267e-06 -3.54013
471 1 21.4808 -11.5492 -2.7075 4.55038e-06 -3.53997
472 1 21.0424 -9.80175 -0.9 4.73626e-06 -3.54015
473 1 20.604 -8.05403 0.9075 4.8205e-06 -3.54015
474 1 20.1656 -6.30592 2.715 4.81463e-06 -3.54015
475 1 22.7959 -9.35746 -2.7075 3.67825e-06 -3.54016
476 1 22.3575 -7.60906 -0.9 3.74541e-06 -3.54016
477 1 21.9192 -5.86028 0.9075 3.74949e-06 -3.54016
478 1 21.4808 -4.11104 2.715 3.70454e-06 -3.54016
479 1 24.1111 -7.16446 -2.7075 2.92584e-06 -3.54017
480 1 23.6727 -5.41511 -0.9 2.93112e-06 -3.54017
481 1 23.2343 -3.66533 0.9075 2.90077e-06 -3.54017
482 1 22.7959 -1.91505 2.715 2.8475e-06 -3.54017
483 1 25.4262 -4.97037 -2.7075 2.30015e-06 -3.54018
484 1 24.9878 -3.22011 -0.9 2.27747e-06 -3.54018
485 1 24.5495 -1.4694 0.9075 2.23787e-06 -3.54017
486 1 24.1111 0.281836 2.715 2.19206e-06 -3.54017
487 1 26.7414 -2.77536 -2.7075 1.79386e-06 -3.54018
488 1 26.303 -1.02427 -0.9 1.76331e-06 -3.54018
489 1 25.8646 0.727291 0.9075 1.72855e-06 -3.54018
490 1 25.4262 2.47938 2.715 1.69848e-06 -3.54017
491 1 28.0565 -0.579625 -2.7075 1.39405e-06 -3.54018
492 1 27.6181 1.17222 -0.9 1.36737e-06 -3.54018
493 1 27.1798 2.92455 0.9075 1.34497e-06 -3.54018
494 1 26.7414 4.67738 2.715 1.33413e-06 -3.54018
495 1 29.3717 1.61668 -2.7075 1.08588e-06 -3.54019
496 1 28.9333 3.3692 -0.9 1.06924e-06 -3.54018
497 1 28.4949 5.12219 0.9075 1.06212e-06 -3.54018
498 1 28.0565 6.87566 2.715 1.07007e-06 -3.54018
499 1 30.6868 3.81339 -2.7075 8.53862e-07 -3.54019
500 1 30.2484 5.5665 -0.9 8.49424e-07 -3.54019
501 1 29.8101 7.32005 0.9075 8.56972e-07 -3.54018
502 1 29.3717 9.07407 2.715 8.80217e-07 -3.54018
503 1 32.002 6.01037 -2.7075 6.82643e-07 -3.54019
504 1 31.5636 7.76399 -0.9 6.89632e-07 -3.54019
505 1 31.1252 9.51801 0.9075 7.08788e-07 -3.54018
506 1 30.6868 11.2725 2.715 7.42013e-07 -3.54001
507 1 33.3171 8.20751 -2.7075 5.57736e-07 -3.54019
508 1 32.8787 9.96154 -0.9 5.73526e-07 -3.54019
509 1 32.4404 11.716 0.9075 6.00002e-07 -3.54006
510 1 32.002 13.4707 2.715 2.01747e-05 -3.5408
511 1 34.6323 10.4047 -2.7075 4.6636e-07 -3.5402
512 1 34.1939 12.1591 -0.9 4.87528e-07 -3.54015
513 1 33.7555 13.9138 0.9075 5.29689e-06 -3.54061
514 1 35.9474 12.6018 -2.7075 4.76485e-06 -3.54037
515 1 35.509 14.3565 -0.9 1.35856e-05 -3.54055
516 1 -5.69898 -14.0282 2.715 10.8418 -1.65388
517 1 18.4121 -14.1825 2.715 0.000696011 -3.54019
518 1 20.1656 -13.7394 0.9075 0.000274543 -3.53981
519 1 19.7272 -11.993 2.715 5.89989e-06 -3.5395
520 1 22.3575 14.7666 -2.7075 0.00104962 -3.5406
521 1 21.9192 -13.2964 -0.9 5.3974e-05 -3.53917
522 1 21.4808 -11.5492 0.9075 4.55038e-06 -3.53997
523 1 21.0424 -9.80175 2.715 4.73626e-06 -3.54015
524 1 23.6727 -12.8535 -2.7075 3.3348e-06 -3.53912
525 1 23.2343 -11.1056 -0.9 3.54091e-06 -3.54018
526 1 22.7959 -9.35746 0.9075 3.67825e-06 -3.54016
527 1 22.3575 -7.60906 2.715 3.74541e-06 -3.54016
528 1 24.9878 -10.6622 -2.7075 2.77577e-06 -3.54017
529 1 24.5495 -8.91346 -0.9 2.87561e-06 -3.54017
530 1 24.1111 -7.16446 0.9075 2.92584e-06 -3.54017
531 1 23.6727 -5.41511 2.715 2.93112e-06 -3.54017
532 1 26.303 -8.46974 -2.7075 2.26116e-06 -3.54018
533 1 25.8646 -6.72022 -0.9 2.29689e-06 -3.54018
534 1 25.4262 -4.97037 0.9075 2.30015e-06 -3.54018
535 1 24.9878 -3.22011 2.715 2.27747e-06 -3.54018
536 1 27.6181 -6.27632 -2.7075 1.81156e-06 -3.54018
537 1 27.1798 -4.52603 -0.9 1.81215e-06 -3.54018
538 1 26.7414 -2.77536 0.9075 1.79386e-06 -3.54018
539 1 26.303 -1.02427 2.715 1.76331e-06 -3.54018
540 1 28.9333 -4.08206 -2.7075 1.43357e-06 -3.54019
541 1 28.4949 -2.33104 -0.9 1.41815e-06 -3.54019
542 1 28.0565 -0.579625 0.9075 1.39405e-06 -3.54018
543 1 27.6181 1.17222 2.715 1.36737e-06 -3.54018
544 1 30.2484 -1.8871 -2.7075 1.12572e-06 -3.54019
545 1 29.8101 -0.135413 -0.9 1.10646e-06 -3.54019
546 1 29.3717 1.61668 0.9075 1.08588e-06 -3.54019
547 1 28.9333 3.3692 2.715 1.06924e-06 -3.54018
548 1 31.5636 0.308401 -2.7075 8.82053e-07 -3.54019
549 1 31.1252 2.0607 -0.9 8.66149e-07 -3.54019
550 1 30.6868 3.81339 0.9075 8.53862e-07 -3.54019
551 1 30.2484 5.5665 2.715 8.49424e-07 -3.54019
552 1 32.8787 2.50432 -2.7075 6.9419e-07 -3.54019
553 1 32.4404 4.25716 -0.9 6.85182e-07 -3.54019
554 1 32.002 6.01037 0.9075 6.82643e-07 -3.54019
555 1 31.5636 7.76399 2.715 6.89632e-07 -3.54019
556 1 34.1939 4.70054 -2.7075 5.5261e-07 -3.5402
557 1 33.7555 6.45385 -0.9 5.51387e-07 -3.54019
558 1 33.3171 8.20751 0.9075 5.57736e-07 -3.54019
559 1 32.8787 9.96154 2.715 5.73526e-07 -3.54019
560 1 35.509 6.89696 -2.7075 4.47655e-07 -3.5402
561 1 35.0707 8.65066 -0.9 4.53339e-07 -3.5402
562 1 34.6323 10.4047 0.9075 4.6636e-07 -3.5402
563 1 34.1939 12.1591 2.715 4.87528e-07 -3.54015
564 1 36.8242 9.09347 -2.7075 3.70333e-07 -3.5402
565 1 36.3858 10.8475 -0.9 3.81082e-07 -3.54015
566 1 35.9474 12.6018 0.9075 4.76485e-06 -3.54037
567 1 35.509 14.3565 2.715 1.35856e-05 -3.54055
568 1 38.1393 11.29 -2.7075 3.12909e-07 -3.54008
569 1 37.7009 13.0443 -0.9 1.32598e-05 -3.54063
570 2 -7.01413 -12.7572 3.615 6.19471 -3.09081
571 1 39.4545 13.4865 -2.7075 8.66928e-06 -3.54062
572 1 22.3575 14.7666 0.9075 0.00104962 -3.5406
573 1 21.9192 -13.2964 2.715 5.3974e-05 -3.53917
574 1 24.1111 -14.6012 -0.9 0.000507823 -3.54026
575 1 23.6727 -12.8535 0.9075 3.3348e-06 -3.53912
576 1 23.2343 -11.1056 2.715 3.54091e-06 -3.54018
577 1 25.8646 -14.159 -2.7075 0.000266639 -3.54022
578 1 25.4262 -12.4107 -0.9 2.62719e-06 -3.53951
579 1 24.9878 -10.6622 0.9075 2.77577e-06 -3.54017
580 1 24.5495 -8.91346 2.715 2.87561e-06 -3.54017
581 1 27.1798 -11.968 -2.7075 2.08295e-06 -3.53978
582 1 26.7414 -10.219 -0.9 2.18971e-06 -3.54018
583 1 26.303 -8.46974 0.9075 2.26116e-06 -3.54018
584 1 25.8646 -6.72022 2.715 2.29689e-06 -3.54018
585 1 28.4949 -9.77601 -2.7075 1.73698e-06 -3.54018
586 1 28.0565 -8.0263 -0.9 1.78731e-06 -3.54018
587 1 27.6181 -6.27632 0.9075 1.81156e-06 -3.54018
588 1 27.1798 -4.52603 2.715 1.81215e-06 -3.54018
589 1 29.8101 -7.58311 -2.7075 1.41966e-06 -3.54019
590 1 29.3717 -5.83273 -0.9 1.43527e-06 -3.54019
591 1 28.9333 -4.08206 0.9075 1.43357e-06 -3.54019
592 1 28.4949 -2.33104 2.715 1.41815e-06 -3.54019
593 1 31.1252 -5.38944 -2.7075 1.14227e-06 -3.54019
594 1 30.6868 -3.63843 -0.9 1.13895e-06 -3.54019
595 1 30.2484 -1.8871 0.9075 1.12572e-06 -3.54019
596 1 29.8101 -0.135413 2.715 1.10646e-06 -3.54019
597 1 32.4404 -3.19513 -2.7075 9.08903e-07 -3.5402
598 1 32.002 -1.44353 -0.9 8.97519e-07 -3.54019
599 1 31.5636 0.308401 0.9075 8.82053e-07 -3.54019
600 1 31.1252 2.0607 2.715 8.66149e-07 -3.54019
601 1 33.7555 -1.00029 -2.7075 7.18896e-07 -3.5402