# LAMMPS data file Sigma = 17, inclination = 0.000000
#LAMMPS data file
3710 atoms
2 atom types
-100.1000000000 100.1000000000 xlo xhi
-14.9050426500 14.9050426500 ylo yhi
-3.6150000000 3.6150000000 zlo zhi
0.0 0.0 0.0 xy xz yz

Atoms # atomic

1 1 0.4383827906 13.1514942793 -1.8075000000
2 1 -0.0000003986 14.9050268366 0.0000000000
3 1 -0.0000001993 7.4525134183 -1.8075000000
4 1 1.3151491689 9.6444291647 -1.8075000000
5 1 0.8767659797 11.3979617220 0.0000000000
6 1 0.4383827906 13.1514942793 1.8075000000
7 1 -0.0000003986 14.9050268366 3.6150000000
8 1 2.6302985370 11.8363449112 -1.8075000000
9 1 2.1919153479 13.5898774685 0.0000000000
10 1 3.9454479052 14.0282606576 -1.8075000000
11 1 0.8767661790 3.9454483037 -1.8075000000
12 1 0.4383829899 5.6989808610 0.0000000000
13 1 -0.0000001993 7.4525134183 1.8075000000
14 1 2.1919155472 6.1373640502 -1.8075000000
15 1 1.7535323580 7.8908966074 0.0000000000
16 1 1.3151491689 9.6444291647 1.8075000000
17 1 0.8767659797 11.3979617220 3.6150000000
18 1 3.5070649153 8.3292797966 -1.8075000000
19 1 3.0686817262 10.0828123539 0.0000000000
20 1 2.6302985370 11.8363449112 1.8075000000
21 1 2.1919153479 13.5898774685 3.6150000000
22 1 4.8222142835 10.5211955430 -1.8075000000
23 1 4.3838310943 12.2747281003 0.0000000000
24 1 3.9454479052 14.0282606576 1.8075000000
25 1 6.1373636516 12.7131112895 -1.8075000000
26 1 5.6989804625 14.4666438467 0.0000000000
27 1 7.4525130197 14.9050270359 -1.8075000000
28 1 0.4383831891 -1.7535325573 -1.8075000000
29 1 0.0000000000 0.0000000000 0.0000000000
30 1 1.7535325573 0.4383831891 -1.8075000000
31 1 1.3151493681 2.1919157464 0.0000000000
32 1 0.8767661790 3.9454483037 1.8075000000
33 1 0.4383829899 5.6989808610 3.6150000000
34 1 3.0686819254 2.6302989356 -1.8075000000
35 1 2.6302987363 4.3838314929 0.0000000000
36 1 2.1919155472 6.1373640502 1.8075000000
37 1 1.7535323580 7.8908966074 3.6150000000
38 1 4.3838312936 4.8222146820 -1.8075000000
39 1 3.9454481044 6.5757472393 0.0000000000
40 1 3.5070649153 8.3292797966 1.8075000000
41 1 3.0686817262 10.0828123539 3.6150000000
42 1 5.6989806617 7.0141304284 -1.8075000000
43 1 5.2605974726 8.7676629857 0.0000000000
44 1 4.8222142835 10.5211955430 1.8075000000
45 1 4.3838310943 12.2747281003 3.6150000000
46 1 7.0141300299 9.2060461749 -1.8075000000
47 1 6.5757468407 10.9595787322 0.0000000000
48 1 6.1373636516 12.7131112895 1.8075000000
49 1 5.6989804625 14.4666438467 3.6150000000
50 1 8.3292793980 11.3979619213 -1.8075000000
51 1 7.8908962089 13.1514944786 0.0000000000
52 1 7.4525130197 14.9050270359 1.8075000000
53 1 9.6444287662 13.5898776677 -1.8075000000
54 1 0.0000001993 -7.4525134183 -1.8075000000
55 1 1.3151495674 -5.2605976719 -1.8075000000
56 1 0.8767663783 -3.5070651146 0.0000000000
57 1 0.4383831891 -1.7535325573 1.8075000000
58 1 0.0000000000 0.0000000000 3.6150000000
59 1 2.6302989356 -3.0686819254 -1.8075000000
60 1 2.1919157464 -1.3151493681 0.0000000000
61 1 1.7535325573 0.4383831891 1.8075000000
62 1 1.3151493681 2.1919157464 3.6150000000
63 1 3.9454483037 -0.8767661790 -1.8075000000
64 1 3.5070651146 0.8767663783 0.0000000000
65 1 3.0686819254 2.6302989356 1.8075000000
66 1 2.6302987363 4.3838314929 3.6150000000
67 1 5.2605976719 1.3151495674 -1.8075000000
68 1 4.8222144827 3.0686821247 0.0000000000
69 1 4.3838312936 4.8222146820 1.8075000000
70 1 3.9454481044 6.5757472393 3.6150000000
71 1 6.5757470400 3.5070653139 -1.8075000000
72 1 6.1373638509 5.2605978711 0.0000000000
73 1 5.6989806617 7.0141304284 1.8075000000
74 1 5.2605974726 8.7676629857 3.6150000000
75 1 7.8908964082 5.6989810603 -1.8075000000
76 1 7.4525132190 7.4525136176 0.0000000000
77 1 7.0141300299 9.2060461749 1.8075000000
78 1 6.5757468407 10.9595787322 3.6150000000
79 1 9.2060457763 7.8908968067 -1.8075000000
80 1 8.7676625872 9.6444293640 0.0000000000
81 1 8.3292793980 11.3979619213 1.8075000000
82 1 7.8908962089 13.1514944786 3.6150000000
83 1 10.5211951445 10.0828125532 -1.8075000000
84 1 10.0828119553 11.8363451104 0.0000000000
85 1 9.6444287662 13.5898776677 1.8075000000
86 1 11.8363445126 12.2747282996 -1.8075000000
87 1 11.3979613235 14.0282608569 0.0000000000
88 1 13.1514938808 14.4666440460 -1.8075000000
89 1 0.8767665776 -10.9595785329 -1.8075000000
90 1 0.4383833884 -9.2060459756 0.0000000000
91 1 0.0000001993 -7.4525134183 1.8075000000
92 1 2.1919159457 -8.7676627865 -1.8075000000
93 1 1.7535327566 -7.0141302292 0.0000000000
94 1 1.3151495674 -5.2605976719 1.8075000000
95 1 0.8767663783 -3.5070651146 3.6150000000
96 1 3.5070653139 -6.5757470400 -1.8075000000
97 1 3.0686821247 -4.8222144827 0.0000000000
98 1 2.6302989356 -3.0686819254 1.8075000000
99 1 2.1919157464 -1.3151493681 3.6150000000
100 1 4.8222146820 -4.3838312936 -1.8075000000
101 1 4.3838314929 -2.6302987363 0.0000000000
102 1 3.9454483037 -0.8767661790 1.8075000000
103 1 3.5070651146 0.8767663783 3.6150000000
104 1 6.1373640502 -2.1919155472 -1.8075000000
105 1 5.6989808610 -0.4383829899 0.0000000000
106 1 5.2605976719 1.3151495674 1.8075000000
107 1 4.8222144827 3.0686821247 3.6150000000
108 1 7.4525134183 0.0000001993 -1.8075000000
109 1 7.0141302292 1.7535327566 0.0000000000
110 1 6.5757470400 3.5070653139 1.8075000000
111 1 6.1373638509 5.2605978711 3.6150000000
112 1 8.7676627865 2.1919159457 -1.8075000000
113 1 8.3292795973 3.9454485030 0.0000000000
114 1 7.8908964082 5.6989810603 1.8075000000
115 1 7.4525132190 7.4525136176 3.6150000000
116 1 10.0828121546 4.3838316921 -1.8075000000
117 1 9.6444289655 6.1373642494 0.0000000000
118 1 9.2060457763 7.8908968067 1.8075000000
119 1 8.7676625872 9.6444293640 3.6150000000
120 1 11.3979615227 6.5757474386 -1.8075000000
121 1 10.9595783336 8.3292799959 0.0000000000
122 1 10.5211951445 10.0828125532 1.8075000000
123 1 10.0828119553 11.8363451104 3.6150000000
124 1 12.7131108909 8.7676631850 -1.8075000000
125 1 12.2747277018 10.5211957423 0.0000000000
126 1 11.8363445126 12.2747282996 1.8075000000
127 1 11.3979613235 14.0282608569 3.6150000000
128 1 14.0282602590 10.9595789314 -1.8075000000
129 1 13.5898770699 12.7131114887 0.0000000000
130 1 13.1514938808 14.4666440460 1.8075000000
131 1 15.3434096272 13.1514946779 -1.8075000000
132 1 14.9050264381 14.9050272352 0.0000000000
133 1 0.0000003986 -14.9050268366 0.0000000000
134 1 1.7535329558 -14.4666436475 -1.8075000000
135 1 1.3151497667 -12.7131110902 0.0000000000
136 1 0.8767665776 -10.9595785329 1.8075000000
137 1 0.4383833884 -9.2060459756 3.6150000000
138 1 3.0686823240 -12.2747279010 -1.8075000000
139 1 2.6302991349 -10.5211953437 0.0000000000
140 1 2.1919159457 -8.7676627865 1.8075000000
141 1 1.7535327566 -7.0141302292 3.6150000000
142 1 4.3838316921 -10.0828121546 -1.8075000000
143 1 3.9454485030 -8.3292795973 0.0000000000
144 1 3.5070653139 -6.5757470400 1.8075000000
145 1 3.0686821247 -4.8222144827 3.6150000000
146 1 5.6989810603 -7.8908964082 -1.8075000000
147 1 5.2605978711 -6.1373638509 0.0000000000
148 1 4.8222146820 -4.3838312936 1.8075000000
149 1 4.3838314929 -2.6302987363 3.6150000000
150 1 7.0141304284 -5.6989806617 -1.8075000000
151 1 6.5757472393 -3.9454481044 0.0000000000
152 1 6.1373640502 -2.1919155472 1.8075000000
153 1 5.6989808610 -0.4383829899 3.6150000000
154 1 8.3292797966 -3.5070649153 -1.8075000000
155 1 7.8908966074 -1.7535323580 0.0000000000
156 1 7.4525134183 0.0000001993 1.8075000000
157 1 7.0141302292 1.7535327566 3.6150000000
158 1 9.6444291647 -1.3151491689 -1.8075000000
159 1 9.2060459756 0.4383833884 0.0000000000
160 1 8.7676627865 2.1919159457 1.8075000000
161 1 8.3292795973 3.9454485030 3.6150000000
162 1 10.9595785329 0.8767665776 -1.8075000000
163 1 10.5211953437 2.6302991349 0.0000000000
164 1 10.0828121546 4.3838316921 1.8075000000
165 1 9.6444289655 6.1373642494 3.6150000000
166 1 12.2747279010 3.0686823240 -1.8075000000
167 1 11.8363447119 4.8222148813 0.0000000000
168 1 11.3979615227 6.5757474386 1.8075000000
169 1 10.9595783336 8.3292799959 3.6150000000
170 1 13.5898772692 5.2605980704 -1.8075000000
171 1 13.1514940800 7.0141306277 0.0000000000
172 1 12.7131108909 8.7676631850 1.8075000000
173 1 12.2747277018 10.5211957423 3.6150000000
174 1 14.9050266373 7.4525138169 -1.8075000000
175 1 14.4666434482 9.2060463742 0.0000000000
176 1 14.0282602590 10.9595789314 1.8075000000
177 1 13.5898770699 12.7131114887 3.6150000000
178 1 16.2201760055 9.6444295633 -1.8075000000
179 1 15.7817928163 11.3979621206 0.0000000000
180 1 15.3434096272 13.1514946779 1.8075000000
181 1 14.9050264381 14.9050272352 3.6150000000
182 1 17.5353253736 11.8363453097 -1.8075000000
183 1 17.0969421845 13.5898778670 0.0000000000
184 1 18.8504747418 14.0282610562 -1.8075000000
185 1 0.0000003986 -14.9050268366 3.6150000000
186 1 1.7535329558 -14.4666436475 1.8075000000
187 1 1.3151497667 -12.7131110902 3.6150000000
188 1 3.5070655131 -14.0282604583 0.0000000000
189 1 3.0686823240 -12.2747279010 1.8075000000
190 1 2.6302991349 -10.5211953437 3.6150000000
191 1 5.2605980704 -13.5898772692 -1.8075000000
192 1 4.8222148813 -11.8363447119 0.0000000000
193 1 4.3838316921 -10.0828121546 1.8075000000
194 1 3.9454485030 -8.3292795973 3.6150000000
195 1 6.5757474386 -11.3979615227 -1.8075000000
196 1 6.1373642494 -9.6444289655 0.0000000000
197 1 5.6989810603 -7.8908964082 1.8075000000
198 1 5.2605978711 -6.1373638509 3.6150000000
199 1 7.8908968067 -9.2060457763 -1.8075000000
200 1 7.4525136176 -7.4525132190 0.0000000000
201 1 7.0141304284 -5.6989806617 1.8075000000
202 1 6.5757472393 -3.9454481044 3.6150000000
203 1 9.2060461749 -7.0141300299 -1.8075000000
204 1 8.7676629857 -5.2605974726 0.0000000000
205 1 8.3292797966 -3.5070649153 1.8075000000
206 1 7.8908966074 -1.7535323580 3.6150000000
207 1 10.5211955430 -4.8222142835 -1.8075000000
208 1 10.0828123539 -3.0686817262 0.0000000000
209 1 9.6444291647 -1.3151491689 1.8075000000
210 1 9.2060459756 0.4383833884 3.6150000000
211 1 11.8363449112 -2.6302985370 -1.8075000000
212 1 11.3979617220 -0.8767659797 0.0000000000
213 1 10.9595785329 0.8767665776 1.8075000000
214 1 10.5211953437 2.6302991349 3.6150000000
215 1 13.1514942793 -0.4383827906 -1.8075000000
216 1 12.7131110902 1.3151497667 0.0000000000
217 1 12.2747279010 3.0686823240 1.8075000000
218 1 11.8363447119 4.8222148813 3.6150000000
219 1 14.4666436475 1.7535329558 -1.8075000000
220 1 14.0282604583 3.5070655131 0.0000000000
221 1 13.5898772692 5.2605980704 1.8075000000
222 1 13.1514940800 7.0141306277 3.6150000000
223 1 15.7817930156 3.9454487023 -1.8075000000
224 1 15.3434098265 5.6989812596 0.0000000000
225 1 14.9050266373 7.4525138169 1.8075000000
226 1 14.4666434482 9.2060463742 3.6150000000
227 1 17.0969423838 6.1373644487 -1.8075000000
228 1 16.6585591946 7.8908970060 0.0000000000
229 1 16.2201760055 9.6444295633 1.8075000000
230 1 15.7817928163 11.3979621206 3.6150000000
231 1 18.4120917519 8.3292801951 -1.8075000000
232 1 17.9737085628 10.0828127524 0.0000000000
233 1 17.5353253736 11.8363453097 1.8075000000
234 1 17.0969421845 13.5898778670 3.6150000000
235 1 19.7272411201 10.5211959416 -1.8075000000
236 1 19.2888579309 12.2747284989 0.0000000000
237 1 18.8504747418 14.0282610562 1.8075000000
238 1 21.0423904882 12.7131116880 -1.8075000000
239 1 20.6040072991 14.4666442453 0.0000000000
240 1 22.3575398564 14.9050274344 -1.8075000000
241 1 3.5070655131 -14.0282604583 3.6150000000
242 1 5.2605980704 -13.5898772692 1.8075000000
243 1 4.8222148813 -11.8363447119 3.6150000000
244 1 7.4525138169 -14.9050266373 -1.8075000000
245 1 7.0141306277 -13.1514940800 0.0000000000
246 1 6.5757474386 -11.3979615227 1.8075000000
247 1 6.1373642494 -9.6444289655 3.6150000000
248 1 8.7676631850 -12.7131108909 -1.8075000000
249 1 8.3292799959 -10.9595783336 0.0000000000
250 1 7.8908968067 -9.2060457763 1.8075000000
251 1 7.4525136176 -7.4525132190 3.6150000000
252 1 10.0828125532 -10.5211951445 -1.8075000000
253 1 9.6444293640 -8.7676625872 0.0000000000
254 1 9.2060461749 -7.0141300299 1.8075000000
255 1 8.7676629857 -5.2605974726 3.6150000000
256 1 11.3979619213 -8.3292793980 -1.8075000000
257 1 10.9595787322 -6.5757468407 0.0000000000
258 1 10.5211955430 -4.8222142835 1.8075000000
259 1 10.0828123539 -3.0686817262 3.6150000000
260 1 12.7131112895 -6.1373636516 -1.8075000000
261 1 12.2747281003 -4.3838310943 0.0000000000
262 1 11.8363449112 -2.6302985370 1.8075000000
263 1 11.3979617220 -0.8767659797 3.6150000000
264 1 14.0282606576 -3.9454479052 -1.8075000000
265 1 13.5898774685 -2.1919153479 0.0000000000
266 1 13.1514942793 -0.4383827906 1.8075000000
267 1 12.7131110902 1.3151497667 3.6150000000
268 1 15.3434100257 -1.7535321587 -1.8075000000
269 1 14.9050268366 0.0000003986 0.0000000000
270 1 14.4666436475 1.7535329558 1.8075000000
271 1 14.0282604583 3.5070655131 3.6150000000
272 1 16.6585593939 0.4383835877 -1.8075000000
273 1 16.2201762048 2.1919161450 0.0000000000
274 1 15.7817930156 3.9454487023 1.8075000000
275 1 15.3434098265 5.6989812596 3.6150000000
276 1 17.9737087620 2.6302993341 -1.8075000000
277 1 17.5353255729 4.3838318914 0.0000000000
278 1 17.0969423838 6.1373644487 1.8075000000
279 1 16.6585591946 7.8908970060 3.6150000000
280 1 19.2888581302 4.8222150806 -1.8075000000
281 1 18.8504749411 6.5757476379 0.0000000000
282 1 18.4120917519 8.3292801951 1.8075000000
283 1 17.9737085628 10.0828127524 3.6150000000
284 1 20.6040074983 7.0141308270 -1.8075000000
285 1 20.1656243092 8.7676633843 0.0000000000
286 1 19.7272411201 10.5211959416 1.8075000000
287 1 19.2888579309 12.2747284989 3.6150000000
288 1 21.9191568665 9.2060465734 -1.8075000000
289 1 21.4807736773 10.9595791307 0.0000000000
290 1 21.0423904882 12.7131116880 1.8075000000
291 1 20.6040072991 14.4666442453 3.6150000000
292 1 23.2343062346 11.3979623199 -1.8075000000
293 1 22.7959230455 13.1514948772 0.0000000000
294 1 22.3575398564 14.9050274344 1.8075000000
295 1 24.5494556028 13.5898780663 -1.8075000000
296 1 7.4525138169 -14.9050266373 1.8075000000
297 1 7.0141306277 -13.1514940800 3.6150000000
298 1 9.2060463742 -14.4666434482 0.0000000000
299 1 8.7676631850 -12.7131108909 1.8075000000
300 1 8.3292799959 -10.9595783336 3.6150000000
301 1 10.9595789314 -14.0282602590 -1.8075000000
302 1 10.5211957423 -12.2747277018 0.0000000000
303 1 10.0828125532 -10.5211951445 1.8075000000
304 1 9.6444293640 -8.7676625872 3.6150000000
305 1 12.2747282996 -11.8363445126 -1.8075000000
306 1 11.8363451104 -10.0828119553 0.0000000000
307 1 11.3979619213 -8.3292793980 1.8075000000
308 1 10.9595787322 -6.5757468407 3.6150000000
309 1 13.5898776677 -9.6444287662 -1.8075000000
310 1 13.1514944786 -7.8908962089 0.0000000000
311 1 12.7131112895 -6.1373636516 1.8075000000
312 1 12.2747281003 -4.3838310943 3.6150000000
313 1 14.9050270359 -7.4525130197 -1.8075000000
314 1 14.4666438467 -5.6989804625 0.0000000000
315 1 14.0282606576 -3.9454479052 1.8075000000
316 1 13.5898774685 -2.1919153479 3.6150000000
317 1 16.2201764040 -5.2605972733 -1.8075000000
318 1 15.7817932149 -3.5070647160 0.0000000000
319 1 15.3434100257 -1.7535321587 1.8075000000
320 1 14.9050268366 0.0000003986 3.6150000000
321 1 17.5353257722 -3.0686815269 -1.8075000000
322 1 17.0969425830 -1.3151489696 0.0000000000
323 1 16.6585593939 0.4383835877 1.8075000000
324 1 16.2201762048 2.1919161450 3.6150000000
325 1 18.8504751403 -0.8767657804 -1.8075000000
326 1 18.4120919512 0.8767667768 0.0000000000
327 1 17.9737087620 2.6302993341 1.8075000000
328 1 17.5353255729 4.3838318914 3.6150000000
329 1 20.1656245085 1.3151499660 -1.8075000000
330 1 19.7272413193 3.0686825233 0.0000000000
331 1 19.2888581302 4.8222150806 1.8075000000
332 1 18.8504749411 6.5757476379 3.6150000000
333 1 21.4807738766 3.5070657124 -1.8075000000
334 1 21.0423906875 5.2605982697 0.0000000000
335 1 20.6040074983 7.0141308270 1.8075000000
336 1 20.1656243092 8.7676633843 3.6150000000
337 1 22.7959232448 5.6989814588 -1.8075000000
338 1 22.3575400556 7.4525140161 0.0000000000
339 1 21.9191568665 9.2060465734 1.8075000000
340 1 21.4807736773 10.9595791307 3.6150000000
341 1 24.1110726129 7.8908972053 -1.8075000000
342 1 23.6726894238 9.6444297626 0.0000000000
343 1 23.2343062346 11.3979623199 1.8075000000
344 1 22.7959230455 13.1514948772 3.6150000000
345 1 25.4262219811 10.0828129517 -1.8075000000
346 1 24.9878387919 11.8363455090 0.0000000000
347 1 24.5494556028 13.5898780663 1.8075000000
348 1 26.7413713492 12.2747286981 -1.8075000000
349 1 26.3029881601 14.0282612554 0.0000000000
350 1 28.0565207174 14.4666444446 -1.8075000000
351 1 9.2060463742 -14.4666434482 3.6150000000
352 1 10.9595789314 -14.0282602590 1.8075000000
353 1 10.5211957423 -12.2747277018 3.6150000000
354 1 12.7131114887 -13.5898770699 0.0000000000
355 1 12.2747282996 -11.8363445126 1.8075000000
356 1 11.8363451104 -10.0828119553 3.6150000000
357 1 14.4666440460 -13.1514938808 -1.8075000000
358 1 14.0282608569 -11.3979613235 0.0000000000
359 1 13.5898776677 -9.6444287662 1.8075000000
360 1 13.1514944786 -7.8908962089 3.6150000000
361 1 15.7817934142 -10.9595781343 -1.8075000000
362 1 15.3434102250 -9.2060455770 0.0000000000
363 1 14.9050270359 -7.4525130197 1.8075000000
364 1 14.4666438467 -5.6989804625 3.6150000000
365 1 17.0969427823 -8.7676623879 -1.8075000000
366 1 16.6585595932 -7.0141298306 0.0000000000
367 1 16.2201764040 -5.2605972733 1.8075000000
368 1 15.7817932149 -3.5070647160 3.6150000000
369 1 18.4120921505 -6.5757466415 -1.8075000000
370 1 17.9737089613 -4.8222140842 0.0000000000
371 1 17.5353257722 -3.0686815269 1.8075000000
372 1 17.0969425830 -1.3151489696 3.6150000000
373 1 19.7272415186 -4.3838308950 -1.8075000000
374 1 19.2888583295 -2.6302983377 0.0000000000
375 1 18.8504751403 -0.8767657804 1.8075000000
376 1 18.4120919512 0.8767667768 3.6150000000
377 1 21.0423908868 -2.1919151486 -1.8075000000
378 1 20.6040076976 -0.4383825913 0.0000000000
379 1 20.1656245085 1.3151499660 1.8075000000
380 1 19.7272413193 3.0686825233 3.6150000000
381 1 22.3575402549 0.0000005978 -1.8075000000
382 1 21.9191570658 1.7535331551 0.0000000000
383 1 21.4807738766 3.5070657124 1.8075000000
384 1 21.0423906875 5.2605982697 3.6150000000
385 1 23.6726896231 2.1919163443 -1.8075000000
386 1 23.2343064339 3.9454489016 0.0000000000
387 1 22.7959232448 5.6989814588 1.8075000000
388 1 22.3575400556 7.4525140161 3.6150000000
389 1 24.9878389912 4.3838320907 -1.8075000000
390 1 24.5494558021 6.1373646480 0.0000000000
391 1 24.1110726129 7.8908972053 1.8075000000
392 1 23.6726894238 9.6444297626 3.6150000000
393 1 26.3029883594 6.5757478371 -1.8075000000
394 1 25.8646051702 8.3292803944 0.0000000000
395 1 25.4262219811 10.0828129517 1.8075000000
396 1 24.9878387919 11.8363455090 3.6150000000
397 1 27.6181377275 8.7676635836 -1.8075000000
398 1 27.1797545384 10.5211961409 0.0000000000
399 1 26.7413713492 12.2747286981 1.8075000000
400 1 26.3029881601 14.0282612554 3.6150000000
401 1 28.9332870957 10.9595793300 -1.8075000000
402 1 28.4949039065 12.7131118873 0.0000000000
403 1 28.0565207174 14.4666444446 1.8075000000
404 1 30.2484364638 13.1514950764 -1.8075000000
405 1 29.8100532747 14.9050276337 0.0000000000
406 1 12.7131114887 -13.5898770699 3.6150000000
407 1 14.9050272352 -14.9050264381 0.0000000000
408 1 14.4666440460 -13.1514938808 1.8075000000
409 1 14.0282608569 -11.3979613235 3.6150000000
410 1 16.6585597925 -14.4666432489 -1.8075000000
411 1 16.2201766033 -12.7131106916 0.0000000000
412 1 15.7817934142 -10.9595781343 1.8075000000
413 1 15.3434102250 -9.2060455770 3.6150000000
414 1 17.9737091606 -12.2747275025 -1.8075000000
415 1 17.5353259715 -10.5211949452 0.0000000000
416 1 17.0969427823 -8.7676623879 1.8075000000
417 1 16.6585595932 -7.0141298306 3.6150000000
418 1 19.2888585288 -10.0828117560 -1.8075000000
419 1 18.8504753396 -8.3292791988 0.0000000000
420 1 18.4120921505 -6.5757466415 1.8075000000
421 1 17.9737089613 -4.8222140842 3.6150000000
422 1 20.6040078969 -7.8908960096 -1.8075000000
423 1 20.1656247078 -6.1373634523 0.0000000000
424 1 19.7272415186 -4.3838308950 1.8075000000
425 1 19.2888583295 -2.6302983377 3.6150000000
426 1 21.9191572650 -5.6989802632 -1.8075000000
427 1 21.4807740759 -3.9454477059 0.0000000000
428 1 21.0423908868 -2.1919151486 1.8075000000
429 1 20.6040076976 -0.4383825913 3.6150000000
430 1 23.2343066332 -3.5070645167 -1.8075000000
431 1 22.7959234441 -1.7535319595 0.0000000000
432 1 22.3575402549 0.0000005978 1.8075000000
433 1 21.9191570658 1.7535331551 3.6150000000
434 1 24.5494560013 -1.3151487703 -1.8075000000
435 1 24.1110728122 0.4383837870 0.0000000000
436 1 23.6726896231 2.1919163443 1.8075000000
437 1 23.2343064339 3.9454489016 3.6150000000
438 1 25.8646053695 0.8767669761 -1.8075000000
439 1 25.4262221804 2.6302995334 0.0000000000
440 1 24.9878389912 4.3838320907 1.8075000000
441 1 24.5494558021 6.1373646480 3.6150000000
442 1 27.1797547376 3.0686827226 -1.8075000000
443 1 26.7413715485 4.8222152798 0.0000000000
444 1 26.3029883594 6.5757478371 1.8075000000
445 1 25.8646051702 8.3292803944 3.6150000000
446 1 28.4949041058 5.2605984690 -1.8075000000
447 1 28.0565209166 7.0141310263 0.0000000000
448 1 27.6181377275 8.7676635836 1.8075000000
449 1 27.1797545384 10.5211961409 3.6150000000
450 1 29.8100534739 7.4525142154 -1.8075000000
451 1 29.3716702848 9.2060467727 0.0000000000
452 1 28.9332870957 10.9595793300 1.8075000000
453 1 28.4949039065 12.7131118873 3.6150000000
454 1 31.1252028421 9.6444299618 -1.8075000000
455 1 30.6868196529 11.3979625191 0.0000000000
456 1 30.2484364638 13.1514950764 1.8075000000
457 1 29.8100532747 14.9050276337 3.6150000000
458 1 32.4403522102 11.8363457083 -1.8075000000
459 1 32.0019690211 13.5898782656 0.0000000000
460 1 33.7555015784 14.0282614547 -1.8075000000
461 1 14.9050272352 -14.9050264381 3.6150000000
462 1 16.6585597925 -14.4666432489 1.8075000000
463 1 16.2201766033 -12.7131106916 3.6150000000
464 1 18.4120923497 -14.0282600598 0.0000000000
465 1 17.9737091606 -12.2747275025 1.8075000000
466 1 17.5353259715 -10.5211949452 3.6150000000
467 1 20.1656249070 -13.5898768706 -1.8075000000
468 1 19.7272417179 -11.8363443133 0.0000000000
469 1 19.2888585288 -10.0828117560 1.8075000000
470 1 18.8504753396 -8.3292791988 3.6150000000
471 1 21.4807742752 -11.3979611242 -1.8075000000
472 1 21.0423910860 -9.6444285669 0.0000000000
473 1 20.6040078969 -7.8908960096 1.8075000000
474 1 20.1656247078 -6.1373634523 3.6150000000
475 1 22.7959236433 -9.2060453778 -1.8075000000
476 1 22.3575404542 -7.4525128205 0.0000000000
477 1 21.9191572650 -5.6989802632 1.8075000000
478 1 21.4807740759 -3.9454477059 3.6150000000
479 1 24.1110730115 -7.0141296313 -1.8075000000
480 1 23.6726898223 -5.2605970740 0.0000000000
481 1 23.2343066332 -3.5070645167 1.8075000000
482 1 22.7959234441 -1.7535319595 3.6150000000
483 1 25.4262223796 -4.8222138849 -1.8075000000
484 1 24.9878391905 -3.0686813276 0.0000000000
485 1 24.5494560013 -1.3151487703 1.8075000000
486 1 24.1110728122 0.4383837870 3.6150000000
487 1 26.7413717478 -2.6302981385 -1.8075000000
488 1 26.3029885586 -0.8767655812 0.0000000000
489 1 25.8646053695 0.8767669761 1.8075000000
490 1 25.4262221804 2.6302995334 3.6150000000
491 1 28.0565211159 -0.4383823920 -1.8075000000
492 1 27.6181379268 1.3151501653 0.0000000000
493 1 27.1797547376 3.0686827226 1.8075000000
494 1 26.7413715485 4.8222152798 3.6150000000
495 1 29.3716704841 1.7535333544 -1.8075000000
496 1 28.9332872949 3.5070659117 0.0000000000
497 1 28.4949041058 5.2605984690 1.8075000000
498 1 28.0565209166 7.0141310263 3.6150000000
499 1 30.6868198522 3.9454491008 -1.8075000000
500 1 30.2484366631 5.6989816581 0.0000000000
501 1 29.8100534739 7.4525142154 1.8075000000
502 1 29.3716702848 9.2060467727 3.6150000000
503 1 32.0019692204 6.1373648473 -1.8075000000
504 1 31.5635860312 7.8908974046 0.0000000000
505 1 31.1252028421 9.6444299618 1.8075000000
506 1 30.6868196529 11.3979625191 3.6150000000
507 1 33.3171185885 8.3292805937 -1.8075000000
508 1 32.8787353994 10.0828131510 0.0000000000
509 1 32.4403522102 11.8363457083 1.8075000000
510 1 32.0019690211 13.5898782656 3.6150000000
511 1 34.6322679567 10.5211963401 -1.8075000000
512 1 34.1938847675 12.2747288974 0.0000000000
513 1 33.7555015784 14.0282614547 1.8075000000
514 1 35.9474173248 12.7131120866 -1.8075000000
515 1 35.5090341357 14.4666446439 0.0000000000
516 1 37.2625666930 14.9050278330 -1.8075000000
517 1 18.4120923497 -14.0282600598 3.6150000000
518 1 20.1656249070 -13.5898768706 1.8075000000
519 1 19.7272417179 -11.8363443133 3.6150000000
520 1 22.3575406535 -14.9050262388 -1.8075000000
521 1 21.9191574643 -13.1514936815 0.0000000000
522 1 21.4807742752 -11.3979611242 1.8075000000
523 1 21.0423910860 -9.6444285669 3.6150000000
524 1 23.6726900216 -12.7131104923 -1.8075000000
525 1 23.2343068325 -10.9595779351 0.0000000000
526 1 22.7959236433 -9.2060453778 1.8075000000
527 1 22.3575404542 -7.4525128205 3.6150000000
528 1 24.9878393898 -10.5211947459 -1.8075000000
529 1 24.5494562006 -8.7676621886 0.0000000000
530 1 24.1110730115 -7.0141296313 1.8075000000
531 1 23.6726898223 -5.2605970740 3.6150000000
532 1 26.3029887579 -8.3292789995 -1.8075000000
533 1 25.8646055688 -6.5757464422 0.0000000000
534 1 25.4262223796 -4.8222138849 1.8075000000
535 1 24.9878391905 -3.0686813276 3.6150000000
536 1 27.6181381261 -6.1373632530 -1.8075000000
537 1 27.1797549369 -4.3838306958 0.0000000000
538 1 26.7413717478 -2.6302981385 1.8075000000
539 1 26.3029885586 -0.8767655812 3.6150000000
540 1 28.9332874942 -3.9454475066 -1.8075000000
541 1 28.4949043051 -2.1919149493 0.0000000000
542 1 28.0565211159 -0.4383823920 1.8075000000
543 1 27.6181379268 1.3151501653 3.6150000000
544 1 30.2484368624 -1.7535317602 -1.8075000000
545 1 29.8100536732 0.0000007971 0.0000000000
546 1 29.3716704841 1.7535333544 1.8075000000
547 1 28.9332872949 3.5070659117 3.6150000000
548 1 31.5635862305 0.4383839863 -1.8075000000
549 1 31.1252030414 2.1919165435 0.0000000000
550 1 30.6868198522 3.9454491008 1.8075000000
551 1 30.2484366631 5.6989816581 3.6150000000
552 1 32.8787355987 2.6302997327 -1.8075000000
553 1 32.4403524095 4.3838322900 0.0000000000
554 1 32.0019692204 6.1373648473 1.8075000000
555 1 31.5635860312 7.8908974046 3.6150000000
556 1 34.1938849668 4.8222154791 -1.8075000000
557 1 33.7555017777 6.5757480364 0.0000000000
558 1 33.3171185885 8.3292805937 1.8075000000
559 1 32.8787353994 10.0828131510 3.6150000000
560 1 35.5090343350 7.0141312256 -1.8075000000
561 1 35.0706511458 8.7676637828 0.0000000000
562 1 34.6322679567 10.5211963401 1.8075000000
563 1 34.1938847675 12.2747288974 3.6150000000
564 1 36.8241837031 9.2060469720 -1.8075000000
565 1 36.3858005140 10.9595795293 0.0000000000
566 1 35.9474173248 12.7131120866 1.8075000000
567 1 35.5090341357 14.4666446439 3.6150000000
568 1 38.1393330712 11.3979627184 -1.8075000000
569 1 37.7009498821 13.1514952757 0.0000000000
570 1 37.2625666930 14.9050278330 1.8075000000
571 1 39.4544824394 13.5898784649 -1.8075000000
572 1 22.3575406535 -14.9050262388 1.8075000000
573 1 21.9191574643 -13.1514936815 3.6150000000
574 1 24.1110732108 -14.4666430496 0.0000000000
575 1 23.6726900216 -12.7131104923 1.8075000000
576 1 23.2343068325 -10.9595779351 3.6150000000
577 1 25.8646057680 -14.0282598605 -1.8075000000
578 1 25.4262225789 -12.2747273032 0.0000000000
579 1 24.9878393898 -10.5211947459 1.8075000000
580 1 24.5494562006 -8.7676621886 3.6150000000
581 1 27.1797551362 -11.8363441141 -1.8075000000
582 1 26.7413719471 -10.0828115568 0.0000000000
583 1 26.3029887579 -8.3292789995 1.8075000000
584 1 25.8646055688 -6.5757464422 3.6150000000
585 1 28.4949045043 -9.6444283676 -1.8075000000
586 1 28.0565213152 -7.8908958103 0.0000000000
587 1 27.6181381261 -6.1373632530 1.8075000000
588 1 27.1797549369 -4.3838306958 3.6150000000
589 1 29.8100538725 -7.4525126212 -1.8075000000
590 1 29.3716706834 -5.6989800639 0.0000000000
591 1 28.9332874942 -3.9454475066 1.8075000000
592 1 28.4949043051 -2.1919149493 3.6150000000
593 1 31.1252032406 -5.2605968748 -1.8075000000
594 1 30.6868200515 -3.5070643175 0.0000000000
595 1 30.2484368624 -1.7535317602 1.8075000000
596 1 29.8100536732 0.0000007971 3.6150000000
597 1 32.4403526088 -3.0686811283 -1.8075000000
598 1 32.0019694196 -1.3151485710 0.0000000000
599 1 31.5635862305 0.4383839863 1.8075000000
600 1 31.1252030414 2.1919165435 3.6150000000
601 1 33.7555019769 -0.8767653819 -1.8075000000
602 1 33.3171187878 0.8767671754 0.0000000000
603 1 32.8787355987 2.6302997327 1.8075000000
604 1 32.4403524095 4.3838322900 3.6150000000
605 1 35.0706513451 1.3151503645 -1.8075000000
606 1 34.6322681559 3.0686829218 0.0000000000
607 1 34.1938849668 4.8222154791 1.8075000000
608 1 33.7555017777 6.5757480364 3.6150000000
609 1 36.3858007132 3.5070661110 -1.8075000000
610 1 35.9474175241 5.2605986683 0.0000000000
611 1 35.5090343350 7.0141312256 1.8075000000
612 1 35.0706511458 8.7676637828 3.6150000000
613 1 37.7009500814 5.6989818574 -1.8075000000
614 1 37.2625668922 7.4525144147 0.0000000000
615 1 36.8241837031 9.2060469720 1.8075000000
616 1 36.3858005140 10.9595795293 3.6150000000
617 1 39.0160994495 7.8908976038 -1.8075000000
618 1 38.5777162604 9.6444301611 0.0000000000
619 1 38.1393330712 11.3979627184 1.8075000000
620 1 37.7009498821 13.1514952757 3.6150000000
621 1 40.3312488177 10.0828133503 -1.8075000000
622 1 39.8928656285 11.8363459076 0.0000000000
623 1 39.4544824394 13.5898784649 1.8075000000
624 1 41.6463981858 12.2747290967 -1.8075000000
625 1 41.2080149967 14.0282616540 0.0000000000
626 1 42.9615475540 14.4666448431 -1.8075000000
627 1 24.1110732108 -14.4666430496 3.6150000000
628 1 25.8646057680 -14.0282598605 1.8075000000
629 1 25.4262225789 -12.2747273032 3.6150000000
630 1 27.6181383253 -13.5898766713 0.0000000000
631 1 27.1797551362 -11.8363441141 1.8075000000
632 1 26.7413719471 -10.0828115568 3.6150000000
633 1 29.3716708826 -13.1514934822 -1.8075000000
634 1 28.9332876935 -11.3979609249 0.0000000000
635 1 28.4949045043 -9.6444283676 1.8075000000
636 1 28.0565213152 -7.8908958103 3.6150000000
637 1 30.6868202508 -10.9595777358 -1.8075000000
638 1 30.2484370616 -9.2060451785 0.0000000000