#LAMMPS data file
2504 atoms
2 atom types
-55.3988719000 55.3988719000 xlo xhi
-18.4329573000 18.4329573000 ylo yhi
-3.6150000000 3.6150000000 zlo zhi
0.0 0.0 0.0 xy xz yz

Atoms # atomic

1 1 0.3544806337 16.6567834323 -1.8075000000
2 1 0.0000007959 -18.4329026465 0.0000000000
3 1 1.0634403091 13.0911230283 -1.8075000000
4 1 0.7089604714 14.8774878902 0.0000000000
5 1 0.3544806337 16.6567834323 1.8075000000
6 1 0.0000007959 -18.4329026465 3.6150000000
7 1 2.4813600580 15.2100162137 -1.8075000000
8 1 2.1268802203 16.9941738155 0.0000000000
9 1 3.8992798069 17.3356639408 -1.8075000000
10 1 0.3544802357 7.1142879584 -1.8075000000
11 1 0.0000003980 8.9099813972 0.0000000000
12 1 1.7723999846 9.4266304105 -1.8075000000
13 1 1.4179201469 11.2848131501 0.0000000000
14 1 1.0634403091 13.0911230283 1.8075000000
15 1 0.7089604714 14.8774878902 3.6150000000
16 1 3.1903197335 11.6122999831 -1.8075000000
17 1 2.8358398957 13.4179613713 0.0000000000
18 1 2.4813600580 15.2100162137 1.8075000000
19 1 2.1268802203 16.9941738155 3.6150000000
20 1 4.6082394824 13.7584104927 -1.8075000000
21 1 4.2537596446 15.5499727263 0.0000000000
22 1 3.8992798069 17.3356639408 1.8075000000
23 1 6.0261592312 15.8958032407 -1.8075000000
24 1 5.6716793935 17.6811146357 0.0000000000
25 1 7.4440789801 18.0297391800 -1.8075000000
26 1 1.0634399112 3.5762064572 -1.8075000000
27 1 0.7089600734 5.3448516409 0.0000000000
28 1 0.3544802357 7.1142879584 1.8075000000
29 1 0.0000003980 8.9099813972 3.6150000000
30 1 2.4813596600 5.7644889224 -1.8075000000
31 1 2.1268798223 7.5690219571 0.0000000000
32 1 1.7723999846 9.4266304105 1.8075000000
33 1 1.4179201469 11.2848131501 3.6150000000
34 1 3.8992794089 7.9706939288 -1.8075000000
35 1 3.5447995712 9.7911594230 0.0000000000
36 1 3.1903197335 11.6122999831 1.8075000000
37 1 2.8358398957 13.4179613713 3.6150000000
38 1 5.3171991578 10.1550217372 -1.8075000000
39 1 4.9627193201 11.9595547892 0.0000000000
40 1 4.6082394824 13.7584104927 1.8075000000
41 1 4.2537596446 15.5499727263 3.6150000000
42 1 6.7351189067 12.3135784284 -1.8075000000
43 1 6.3806390690 14.1066291523 0.0000000000
44 1 6.0261592312 15.8958032407 1.8075000000
45 1 5.6716793935 17.6811146357 3.6150000000
46 1 8.1530386556 14.4589984087 -1.8075000000
47 1 7.7985588179 16.2455960265 0.0000000000
48 1 7.4440789801 18.0297391800 1.8075000000
49 1 9.5709584045 16.5979264796 -1.8075000000
50 1 9.2164785668 18.3806951069 0.0000000000
51 1 0.3544798377 -2.1178841633 -1.8075000000
52 1 0.0000000000 -0.3544869000 0.0000000000
53 1 1.7723995866 0.0429290974 -1.8075000000
54 1 1.4179197489 1.8087042987 0.0000000000
55 1 1.0634399112 3.5762064572 1.8075000000
56 1 0.7089600734 5.3448516409 3.6150000000
57 1 3.1903193355 2.2068389906 -1.8075000000
58 1 2.8358394978 3.9812768752 0.0000000000
59 1 2.4813596600 5.7644889224 1.8075000000
60 1 2.1268798223 7.5690219571 3.6150000000
61 1 4.6082390844 4.3786928718 -1.8075000000
62 1 4.2537592467 6.1671090722 0.0000000000
63 1 3.8992794089 7.9706939288 1.8075000000
64 1 3.5447995712 9.7911594230 3.6150000000
65 1 6.0261588333 6.5545774913 -1.8075000000
66 1 5.6716789955 8.3512143170 0.0000000000
67 1 5.3171991578 10.1550217372 1.8075000000
68 1 4.9627193201 11.9595547892 3.6150000000
69 1 7.4440785822 8.7234868795 -1.8075000000
70 1 7.0895987444 10.5181653514 0.0000000000
71 1 6.7351189067 12.3135784284 1.8075000000
72 1 6.3806390690 14.1066291523 3.6150000000
73 1 8.8619983311 10.8805794262 -1.8075000000
74 1 8.5075184933 12.6702934530 0.0000000000
75 1 8.1530386556 14.4589984087 1.8075000000
76 1 7.7985588179 16.2455960265 3.6150000000
77 1 10.2799180799 13.0281391898 -1.8075000000
78 1 9.9254382422 14.8136116168 0.0000000000
79 1 9.5709584045 16.5979264796 1.8075000000
80 1 9.2164785668 18.3806951069 3.6150000000
81 1 11.6978378288 15.1694519547 -1.8075000000
82 1 11.3433579911 16.9518583262 0.0000000000
83 1 13.1157575777 17.3067939663 -1.8075000000
84 1 1.0634395132 -5.6334172949 -1.8075000000
85 1 0.7089596755 -3.8790028570 0.0000000000
86 1 0.3544798377 -2.1178841633 1.8075000000
87 1 0.0000000000 -0.3544869000 3.6150000000
88 1 2.4813592621 -3.4784677456 -1.8075000000
89 1 2.1268794243 -1.7200945357 0.0000000000
90 1 1.7723995866 0.0429290974 1.8075000000
91 1 1.4179197489 1.8087042987 3.6150000000
92 1 3.8992790110 -1.3266847132 -1.8075000000
93 1 3.5447991732 0.4377275444 0.0000000000
94 1 3.1903193355 2.2068389906 1.8075000000
95 1 2.8358394978 3.9812768752 3.6150000000
96 1 5.3171987599 0.8280264686 -1.8075000000
97 1 4.9627189221 2.6000255945 0.0000000000
98 1 4.6082390844 4.3786928718 1.8075000000
99 1 4.2537592467 6.1671090722 3.6150000000
100 1 6.7351185087 2.9868442876 -1.8075000000
101 1 6.3806386710 4.7668554228 0.0000000000
102 1 6.0261588333 6.5545774913 1.8075000000
103 1 5.6716789955 8.3512143170 3.6150000000
104 1 8.1530382576 5.1473196822 -1.8075000000
105 1 7.7985584199 6.9326702576 0.0000000000
106 1 7.4440785822 8.7234868795 1.8075000000
107 1 7.0895987444 10.5181653514 3.6150000000
108 1 9.5709580065 7.3050324251 -1.8075000000
109 1 9.2164781688 9.0915785799 0.0000000000
110 1 8.8619983311 10.8805794262 1.8075000000
111 1 8.5075184933 12.6702934530 3.6150000000
112 1 10.9888777554 9.4571001290 -1.8075000000
113 1 10.6343979177 11.2422835895 0.0000000000
114 1 10.2799180799 13.0281391898 1.8075000000
115 1 9.9254382422 14.8136116168 3.6150000000
116 1 12.4067975043 11.6033174100 -1.8075000000
117 1 12.0523176666 13.3864206353 0.0000000000
118 1 11.6978378288 15.1694519547 1.8075000000
119 1 11.3433579911 16.9518583262 3.6150000000
120 1 13.8247172532 13.7447993329 -1.8075000000
121 1 13.4702374154 15.5259544813 0.0000000000
122 1 13.1157575777 17.3067939663 1.8075000000
123 1 15.2426370021 15.8827936109 -1.8075000000
124 1 14.8881571643 17.6623514878 0.0000000000
125 1 16.6605567510 18.0182844838 -1.8075000000
126 1 0.3544794398 -11.0092050481 -1.8075000000
127 1 -0.0000003980 -9.6189551972 0.0000000000
128 1 1.7723991887 -9.0505148435 -1.8075000000
129 1 1.4179193509 -7.3679714482 0.0000000000
130 1 1.0634395132 -5.6334172949 1.8075000000
131 1 0.7089596755 -3.8790028570 3.6150000000
132 1 3.1903189375 -6.9646990559 -1.8075000000
133 1 2.8358390998 -5.2285993024 0.0000000000
134 1 2.4813592621 -3.4784677456 1.8075000000
135 1 2.1268794243 -1.7200945357 3.6150000000
136 1 4.6082386864 -4.8378131121 -1.8075000000
137 1 4.2537588487 -3.0857021700 0.0000000000
138 1 3.8992790110 -1.3266847132 1.8075000000
139 1 3.5447991732 0.4377275444 3.6150000000
140 1 6.0261584353 -2.6998188365 -1.8075000000
141 1 5.6716785976 -0.9385221619 0.0000000000
142 1 5.3171987599 0.8280264686 1.8075000000
143 1 4.9627189221 2.6000255945 3.6150000000
144 1 7.4440781842 -0.5555438528 -1.8075000000
145 1 7.0895983465 1.2130376506 0.0000000000
146 1 6.7351185087 2.9868442876 1.8075000000
147 1 6.3806386710 4.7668554228 3.6150000000
148 1 8.8619979331 1.5929047199 -1.8075000000
149 1 8.5075180954 3.3675661639 0.0000000000
150 1 8.1530382576 5.1473196822 1.8075000000
151 1 7.7985584199 6.9326702576 3.6150000000
152 1 10.2799176820 3.7431959661 -1.8075000000
153 1 9.9254378442 5.5220946780 0.0000000000
154 1 9.5709580065 7.3050324251 1.8075000000
155 1 9.2164781688 9.0915785799 3.6150000000
156 1 11.6978374309 5.8927496177 -1.8075000000
157 1 11.3433575931 7.6736544921 0.0000000000
158 1 10.9888777554 9.4571001290 1.8075000000
159 1 10.6343979177 11.2422835895 3.6150000000
160 1 13.1157571798 8.0396680829 -1.8075000000
161 1 12.7612773420 9.8208345015 0.0000000000
162 1 12.4067975043 11.6033174100 1.8075000000
163 1 12.0523176666 13.3864206353 3.6150000000
164 1 14.5336769286 10.1832281115 -1.8075000000
165 1 14.1791970909 11.9637316326 0.0000000000
166 1 13.8247172532 13.7447993329 1.8075000000
167 1 13.4702374154 15.5259544813 3.6150000000
168 1 15.9515966775 12.3235816760 -1.8075000000
169 1 15.5971168398 14.1031037654 0.0000000000
170 1 15.2426370021 15.8827936109 1.8075000000
171 1 14.8881571643 17.6623514878 3.6150000000
172 1 17.3695164264 14.4612476307 -1.8075000000
173 1 17.0150365887 16.2397769720 0.0000000000
174 1 16.6605567510 18.0182844838 1.8075000000
175 1 18.7874361753 16.5967895707 -1.8075000000
176 1 18.4329563376 18.3744324511 0.0000000000
177 1 1.0634391152 -14.5509454511 -1.8075000000
178 1 0.7089592775 -12.7799508228 0.0000000000
179 1 0.3544794398 -11.0092050481 1.8075000000
180 1 -0.0000003980 -9.6189551972 3.6150000000
181 1 2.4813588641 -12.4685329230 -1.8075000000
182 1 2.1268790264 -10.7332815743 0.0000000000
183 1 1.7723991887 -9.0505148435 1.8075000000
184 1 1.4179193509 -7.3679714482 3.6150000000
185 1 3.8992786130 -10.4048761541 -1.8075000000
186 1 3.5447987753 -8.6847876110 0.0000000000
187 1 3.1903189375 -6.9646990559 1.8075000000
188 1 2.8358390998 -5.2285993024 3.6150000000
189 1 5.3171983619 -8.3190603983 -1.8075000000
190 1 4.9627185242 -6.5817207391 0.0000000000
191 1 4.6082386864 -4.8378131121 1.8075000000
192 1 4.2537588487 -3.0857021700 3.6150000000
193 1 6.7351181108 -6.2063894420 -1.8075000000
194 1 6.3806382730 -4.4556896075 0.0000000000
195 1 6.0261584353 -2.6998188365 1.8075000000
196 1 5.6716785976 -0.9385221619 3.6150000000
197 1 8.1530378597 -4.0789873899 -1.8075000000
198 1 7.7985580219 -2.3194222908 0.0000000000
199 1 7.4440781842 -0.5555438528 1.8075000000
200 1 7.0895983465 1.2130376506 3.6150000000
201 1 9.5709576085 -1.9433866029 -1.8075000000
202 1 9.2164777708 -0.1772438587 0.0000000000
203 1 8.8619979331 1.5929047199 1.8075000000
204 1 8.5075180954 3.3675661639 3.6150000000
205 1 10.9888773574 0.1970503009 -1.8075000000
206 1 10.6343975197 1.9682769042 0.0000000000
207 1 10.2799176820 3.7431959661 1.8075000000
208 1 9.9254378442 5.5220946780 3.6150000000
209 1 12.4067971063 2.3399439885 -1.8075000000
210 1 12.0523172686 4.1148126628 0.0000000000
211 1 11.6978374309 5.8927496177 1.8075000000
212 1 11.3433575931 7.6736544921 3.6150000000
213 1 13.8247168552 4.4833253906 -1.8075000000
214 1 13.4702370175 6.2603808273 0.0000000000
215 1 13.1157571798 8.0396680829 1.8075000000
216 1 12.7612773420 9.8208345015 3.6150000000
217 1 15.2426366041 6.6257435303 -1.8075000000
218 1 14.8881567664 8.4037652185 0.0000000000
219 1 14.5336769286 10.1832281115 1.8075000000
220 1 14.1791970909 11.9637316326 3.6150000000
221 1 16.6605563530 8.7663990852 -1.8075000000
222 1 16.3060765153 10.5445676280 0.0000000000
223 1 15.9515966775 12.3235816760 1.8075000000
224 1 15.5971168398 14.1031037654 3.6150000000
225 1 18.0784761019 10.9050533774 -1.8075000000
226 1 17.7239962641 12.6829232408 0.0000000000
227 1 17.3695164264 14.4612476307 1.8075000000
228 1 17.0150365887 16.2397769720 3.6150000000
229 1 19.4963958508 13.0418096069 -1.8075000000
230 1 19.1419160130 14.8191905609 0.0000000000
231 1 18.7874361753 16.5967895707 1.8075000000
232 1 18.4329563376 18.3744324511 3.6150000000
233 1 20.9143155996 15.1769176869 -1.8075000000
234 1 20.5598357619 16.9537628741 0.0000000000
235 1 22.3322353485 17.3106569205 -1.8075000000
236 1 1.7723987907 -18.0934877057 -1.8075000000
237 1 1.4179189530 -16.3221372122 0.0000000000
238 1 1.0634391152 -14.5509454511 1.8075000000
239 1 0.7089592775 -12.7799508228 3.6150000000
240 1 3.1903185396 -15.9873337761 -1.8075000000
241 1 2.8358387018 -14.2242080407 0.0000000000
242 1 2.4813588641 -12.4685329230 1.8075000000
243 1 2.1268790264 -10.7332815743 3.6150000000
244 1 4.6082382885 -13.8911074337 -1.8075000000
245 1 4.2537584507 -12.1409758894 0.0000000000
246 1 3.8992786130 -10.4048761541 1.8075000000
247 1 3.5447987753 -8.6847876110 3.6150000000
248 1 6.0261580373 -11.7993870459 -1.8075000000
249 1 5.6716781996 -10.0561766588 0.0000000000
250 1 5.3171983619 -8.3190603983 1.8075000000
251 1 4.9627185242 -6.5817207391 3.6150000000
252 1 7.4440777862 -9.7002941071 -1.8075000000
253 1 7.0895979485 -7.9535522908 0.0000000000
254 1 6.7351181108 -6.2063894420 1.8075000000
255 1 6.3806382730 -4.4556896075 3.6150000000
256 1 8.8619975351 -7.5884578078 -1.8075000000
257 1 8.5075176974 -5.8349080107 0.0000000000
258 1 8.1530378597 -4.0789873899 1.8075000000
259 1 7.7985580219 -2.3194222908 3.6150000000
260 1 10.2799172840 -5.4659026748 -1.8075000000
261 1 9.9254374463 -3.7060426884 0.0000000000
262 1 9.5709576085 -1.9433866029 1.8075000000
263 1 9.2164777708 -0.1772438587 3.6150000000
264 1 11.6978370329 -3.3359448749 -1.8075000000
265 1 11.3433571952 -1.5708676990 0.0000000000
266 1 10.9888773574 0.1970503009 1.8075000000
267 1 10.6343975197 1.9682769042 3.6150000000
268 1 13.1157567818 -1.2012104795 -1.8075000000
269 1 12.7612769441 0.5680232515 0.0000000000
270 1 12.4067971063 2.3399439885 1.8075000000
271 1 12.0523172686 4.1148126628 3.6150000000
272 1 14.5336765307 0.9362922714 -1.8075000000
273 1 14.1791966929 2.7086411595 0.0000000000
274 1 13.8247168552 4.4833253906 1.8075000000
275 1 13.4702370175 6.2603808273 3.6150000000
276 1 15.9515962796 3.0749813372 -1.8075000000
277 1 15.5971164418 4.8494376997 0.0000000000
278 1 15.2426366041 6.6257435303 1.8075000000
279 1 14.8881567664 8.4037652185 3.6150000000
280 1 17.3695160284 5.2136785499 -1.8075000000
281 1 17.0150361907 6.9893661268 0.0000000000
282 1 16.6605563530 8.7663990852 1.8075000000
283 1 16.3060765153 10.5445676280 3.6150000000
284 1 18.7874357773 7.3516269720 -1.8075000000
285 1 18.4329559396 9.1278834498 0.0000000000
286 1 18.0784761019 10.9050533774 1.8075000000
287 1 17.7239962641 12.6829232408 3.6150000000
288 1 20.2053555262 9.4884451045 -1.8075000000
289 1 19.8508756885 11.2648336984 0.0000000000
290 1 19.4963958508 13.0418096069 1.8075000000
291 1 19.1419160130 14.8191905609 3.6150000000
292 1 21.6232752751 11.6240228256 -1.8075000000
293 1 21.2687954374 13.4002901543 0.0000000000
294 1 20.9143155996 15.1769176869 1.8075000000
295 1 20.5598357619 16.9537628741 3.6150000000
296 1 23.0411950240 13.7584097075 -1.8075000000
297 1 22.6867151863 15.5344283943 0.0000000000
298 1 22.3322353485 17.3106569205 1.8075000000
299 1 24.4591147729 15.8917299020 -1.8075000000
300 1 24.1046349352 17.6674495916 0.0000000000
301 1 25.8770345218 18.0241299981 -1.8075000000
302 1 1.7723987907 -18.0934877057 1.8075000000
303 1 1.4179189530 -16.3221372122 3.6150000000
304 1 3.5447983773 -17.7538348990 0.0000000000
305 1 3.1903185396 -15.9873337761 1.8075000000
306 1 2.8358387018 -14.2242080407 3.6150000000
307 1 5.3171979639 -17.4125042630 -1.8075000000
308 1 4.9627181262 -15.6494806357 0.0000000000
309 1 4.6082382885 -13.8911074337 1.8075000000
310 1 4.2537584507 -12.1409758894 3.6150000000
311 1 6.7351177128 -15.3072476882 -1.8075000000
312 1 6.3806378751 -13.5502372866 0.0000000000
313 1 6.0261580373 -11.7993870459 1.8075000000
314 1 5.6716781996 -10.0561766588 3.6150000000
315 1 8.1530374617 -13.2032057984 -1.8075000000
316 1 7.7985576240 -11.4496844789 0.0000000000
317 1 7.4440777862 -9.7002941071 1.8075000000
318 1 7.0895979485 -7.9535522908 3.6150000000
319 1 9.5709572106 -11.0955771851 -1.8075000000
320 1 9.2164773729 -9.3414333762 0.0000000000
321 1 8.8619975351 -7.5884578078 1.8075000000
322 1 8.5075176974 -5.8349080107 3.6150000000
323 1 10.9888769595 -8.9812799186 -1.8075000000
324 1 10.6343971217 -7.2239288243 0.0000000000
325 1 10.2799172840 -5.4659026748 1.8075000000
326 1 9.9254374463 -3.7060426884 3.6150000000
327 1 12.4067967084 -6.8600665204 -1.8075000000
328 1 12.0523168706 -5.0987698486 0.0000000000
329 1 11.6978370329 -3.3359448749 1.8075000000
330 1 11.3433571952 -1.5708676990 3.6150000000
331 1 13.8247164572 -4.7331805881 -1.8075000000
332 1 13.4702366195 -2.9681240851 0.0000000000
333 1 13.1157567818 -1.2012104795 1.8075000000
334 1 12.7612769441 0.5680232515 3.6150000000
335 1 15.2426362061 -2.6021745998 -1.8075000000
336 1 14.8881563684 -0.8338896448 0.0000000000
337 1 14.5336765307 0.9362922714 1.8075000000
338 1 14.1791966929 2.7086411595 3.6150000000
339 1 16.6605559550 -0.4684791451 -1.8075000000
340 1 16.3060761173 1.3023776691 0.0000000000
341 1 15.9515962796 3.0749813372 1.8075000000
342 1 15.5971164418 4.8494376997 3.6150000000
343 1 18.0784757039 1.6667017719 -1.8075000000
344 1 17.7239958662 3.4394506665 0.0000000000
345 1 17.3695160284 5.2136785499 1.8075000000
346 1 17.0150361907 6.9893661268 3.6150000000
347 1 19.4963954528 3.8024267533 -1.8075000000
348 1 19.1419156151 5.5764436095 0.0000000000
349 1 18.7874357773 7.3516269720 1.8075000000
350 1 18.4329559396 9.1278834498 3.6150000000
351 1 20.9143152017 5.9380304439 -1.8075000000
352 1 20.5598353640 7.7128033767 0.0000000000
353 1 20.2053555262 9.4884451045 1.8075000000
354 1 19.8508756885 11.2648336984 3.6150000000
355 1 22.3322349506 8.0731029633 -1.8075000000
356 1 21.9777551128 9.8482534621 0.0000000000
357 1 21.6232752751 11.6240228256 1.8075000000
358 1 21.2687954374 13.4002901543 3.6150000000
359 1 23.7501546995 10.2074383340 -1.8075000000
360 1 23.3956748617 11.9827111245 0.0000000000
361 1 23.0411950240 13.7584097075 1.8075000000
362 1 22.6867151863 15.5344283943 3.6150000000
363 1 25.1680744483 12.3409714498 -1.8075000000
364 1 24.8135946106 14.1162083984 0.0000000000
365 1 24.4591147729 15.8917299020 1.8075000000
366 1 24.1046349352 17.6674495916 3.6150000000
367 1 26.5859941972 14.4737218331 -1.8075000000
368 1 26.2315143595 16.2488335108 0.0000000000
369 1 25.8770345218 18.0241299981 1.8075000000
370 1 28.0039139461 16.6057523895 -1.8075000000
371 1 27.6494341084 18.3806943150 0.0000000000
372 1 3.5447983773 -17.7538348990 3.6150000000
373 1 5.3171979639 -17.4125042630 1.8075000000
374 1 4.9627181262 -15.6494806357 3.6150000000
375 1 7.0895975505 -17.0685560758 0.0000000000
376 1 6.7351177128 -15.3072476882 1.8075000000
377 1 6.3806378751 -13.5502372866 3.6150000000
378 1 8.8619971372 -16.7217861943 -1.8075000000
379 1 8.5075172994 -14.9608128632 0.0000000000
380 1 8.1530374617 -13.2032057984 1.8075000000
381 1 7.7985576240 -11.4496844789 3.6150000000
382 1 10.2799168860 -14.6110102555 -1.8075000000
383 1 9.9254370483 -12.8519894761 0.0000000000
384 1 9.5709572106 -11.0955771851 1.8075000000
385 1 9.2164773729 -9.3414333762 3.6150000000
386 1 11.6978366349 -12.4980808391 -1.8075000000
387 1 11.3433567972 -10.7390633884 0.0000000000
388 1 10.9888769595 -8.9812799186 1.8075000000
389 1 10.6343971217 -7.2239288243 3.6150000000
390 1 13.1157563838 -10.3812436654 -1.8075000000
391 1 12.7612765461 -8.6206375636 0.0000000000
392 1 12.4067967084 -6.8600665204 1.8075000000
393 1 12.0523168706 -5.0987698486 3.6150000000
394 1 14.5336761327 -8.2599306326 -1.8075000000
395 1 14.1791962950 -6.4969229124 0.0000000000
396 1 13.8247164572 -4.7331805881 1.8075000000
397 1 13.4702366195 -2.9681240851 3.6150000000
398 1 15.9515958816 -6.1345088424 -1.8075000000
399 1 15.5971160439 -4.3689123999 0.0000000000
400 1 15.2426362061 -2.6021745998 1.8075000000
401 1 14.8881563684 -0.8338896448 3.6150000000
402 1 17.3695156305 -4.0057895720 -1.8075000000
403 1 17.0150357928 -2.2377819294 0.0000000000
404 1 16.6605559550 -0.4684791451 1.8075000000
405 1 16.3060761173 1.3023776691 3.6150000000
406 1 18.7874353794 -1.8746918085 -1.8075000000
407 1 18.4329555416 -0.1046337300 0.0000000000
408 1 18.0784757039 1.6667017719 1.8075000000
409 1 17.7239958662 3.4394506665 3.6150000000
410 1 20.2053551283 0.2579252353 -1.8075000000
411 1 19.8508752905 2.0296007101 0.0000000000
412 1 19.4963954528 3.8024267533 1.8075000000
413 1 19.1419156151 5.5764436095 3.6150000000
414 1 21.6232748771 2.3913397824 -1.8075000000
415 1 21.2687950394 4.1642011438 0.0000000000
416 1 20.9143152017 5.9380304439 1.8075000000
417 1 20.5598353640 7.7128033767 3.6150000000
418 1 23.0411946260 4.5249993684 -1.8075000000
419 1 22.6867147883 6.2986650751 0.0000000000
420 1 22.3322349506 8.0731029633 1.8075000000
421 1 21.9777551128 9.8482534621 3.6150000000
422 1 24.4591143749 6.6585211996 -1.8075000000
423 1 24.1046345372 8.4326841314 0.0000000000
424 1 23.7501546995 10.2074383340 1.8075000000
425 1 23.3956748617 11.9827111245 3.6150000000
426 1 25.8770341238 8.7916697434 -1.8075000000
427 1 25.5225542861 10.5661012064 0.0000000000
428 1 25.1680744483 12.3409714498 1.8075000000
429 1 24.8135946106 14.1162083984 3.6150000000
430 1 27.2949538727 10.9243227239 -1.8075000000
431 1 26.9404740350 12.6988633698 0.0000000000
432 1 26.5859941972 14.4737218331 1.8075000000
433 1 26.2315143595 16.2488335108 3.6150000000
434 1 28.7128736216 13.0564361246 -1.8075000000
435 1 28.3583937838 14.8309814202 0.0000000000
436 1 28.0039139461 16.6057523895 1.8075000000
437 1 27.6494341084 18.3806943150 3.6150000000
438 1 30.1307933705 15.1880147705 -1.8075000000
439 1 29.7763135327 16.9625002714 0.0000000000
440 1 31.5487131194 17.3190907004 -1.8075000000
441 1 7.0895975505 -17.0685560758 3.6150000000
442 1 8.8619971372 -16.7217861943 1.8075000000
443 1 8.5075172994 -14.9608128632 3.6150000000
444 1 10.9888765615 -18.1360093383 -1.8075000000
445 1 10.6343967238 -16.3724746801 0.0000000000
446 1 10.2799168860 -14.6110102555 1.8075000000
447 1 9.9254370483 -12.8519894761 3.6150000000
448 1 12.4067963104 -16.0210914689 -1.8075000000
449 1 12.0523164727 -14.2587332602 0.0000000000
450 1 11.6978366349 -12.4980808391 1.8075000000
451 1 11.3433567972 -10.7390633884 3.6150000000
452 1 13.8247160593 -13.9047186023 -1.8075000000
453 1 13.4702362215 -12.1424806804 0.0000000000
454 1 13.1157563838 -10.3812436654 1.8075000000
455 1 12.7612765461 -8.6206375636 3.6150000000
456 1 15.2426358082 -11.7858431305 -1.8075000000
457 1 14.8881559704 -10.0227530359 0.0000000000
458 1 14.5336761327 -8.2599306326 1.8075000000
459 1 14.1791962950 -6.4969229124 3.6150000000
460 1 16.6605555571 -9.6639711047 -1.8075000000
461 1 16.3060757193 -7.8993921049 0.0000000000
462 1 15.9515958816 -6.1345088424 1.8075000000
463 1 15.5971160439 -4.3689123999 3.6150000000
464 1 18.0784753059 -7.5391476553 -1.8075000000
465 1 17.7239954682 -5.7728046835 0.0000000000
466 1 17.3695156305 -4.0057895720 1.8075000000
467 1 17.0150357928 -2.2377819294 3.6150000000
468 1 19.4963950548 -5.4117708674 -1.8075000000
469 1 19.1419152171 -3.6436623200 0.0000000000
470 1 18.7874353794 -1.8746918085 1.8075000000
471 1 18.4329555416 -0.1046337300 3.6150000000
472 1 20.9143148037 -3.2823997216 -1.8075000000
473 1 20.5598349660 -1.5126952633 0.0000000000
474 1 20.2053551283 0.2579252353 1.8075000000
475 1 19.8508752905 2.0296007101 3.6150000000
476 1 22.3322345526 -1.1516197160 -1.8075000000
477 1 21.9777547149 0.6194219522 0.0000000000
478 1 21.6232748771 2.3913397824 1.8075000000
479 1 21.2687950394 4.1642011438 3.6150000000
480 1 23.7501543015 0.9800367055 -1.8075000000
481 1 23.3956744638 2.7521280903 0.0000000000
482 1 23.0411946260 4.5249993684 1.8075000000
483 1 22.6867147883 6.2986650751 3.6150000000
484 1 25.1680740504 3.1121309093 -1.8075000000
485 1 24.8135942126 4.8849969490 0.0000000000
486 1 24.4591143749 6.6585211996 1.8075000000
487 1 24.1046345372 8.4326841314 3.6150000000
488 1 26.5859937993 5.2443316029 -1.8075000000
489 1 26.2315139615 7.0177339227 0.0000000000
490 1 25.8770341238 8.7916697434 1.8075000000
491 1 25.5225542861 10.5661012064 3.6150000000
492 1 28.0039135482 7.3764095813 -1.8075000000
493 1 27.6494337104 9.1501564968 0.0000000000
494 1 27.2949538727 10.9243227239 1.8075000000
495 1 26.9404740350 12.6988633698 3.6150000000
496 1 29.4218332970 9.5082214878 -1.8075000000
497 1 29.0673534593 11.2821678449 0.0000000000
498 1 28.7128736216 13.0564361246 1.8075000000
499 1 28.3583937838 14.8309814202 3.6150000000
500 1 30.8397530459 11.6396895011 -1.8075000000
501 1 30.4852732082 13.4137307812 0.0000000000
502 1 30.1307933705 15.1880147705 1.8075000000
503 1 29.7763135327 16.9625002714 3.6150000000
504 1 32.2576727948 13.7707818498 -1.8075000000
505 1 31.9031929571 15.5448461136 0.0000000000
506 1 31.5487131194 17.3190907004 1.8075000000
507 1 33.6755925437 15.9014967006 -1.8075000000
508 1 33.3211127060 17.6755366106 0.0000000000
509 1 35.0935122926 18.0318501117 -1.8075000000
510 1 10.9888765615 -18.1360093383 1.8075000000
511 1 10.6343967238 -16.3724746801 3.6150000000
512 1 12.7612761481 -17.7850296443 0.0000000000
513 1 12.4067963104 -16.0210914689 1.8075000000
514 1 12.0523164727 -14.2587332602 3.6150000000
515 1 14.5336757347 -17.4326774629 -1.8075000000
516 1 14.1791958970 -15.6681158584 0.0000000000
517 1 13.8247160593 -13.9047186023 1.8075000000
518 1 13.4702362215 -12.1424806804 3.6150000000
519 1 15.9515954836 -15.3139615249 -1.8075000000
520 1 15.5971156459 -13.5495189849 0.0000000000
521 1 15.2426358082 -11.7858431305 1.8075000000
522 1 14.8881559704 -10.0227530359 3.6150000000
523 1 17.3695152325 -13.1935336634 -1.8075000000
524 1 17.0150353948 -11.4285961894 0.0000000000
525 1 16.6605555571 -9.6639711047 1.8075000000
526 1 16.3060757193 -7.8993921049 3.6150000000
527 1 18.7874349814 -11.0710213031 -1.8075000000
528 1 18.4329551437 -9.3051285078 0.0000000000
529 1 18.0784753059 -7.5391476553 1.8075000000
530 1 17.7239954682 -5.7728046835 3.6150000000
531 1 20.2053547303 -8.9463647081 -1.8075000000
532 1 19.8508748926 -7.1792590978 0.0000000000
533 1 19.4963950548 -5.4117708674 1.8075000000
534 1 19.1419152171 -3.6436623200 3.6150000000
535 1 21.6232744792 -6.8197493976 -1.8075000000
536 1 21.2687946414 -5.0513566493 0.0000000000
537 1 20.9143148037 -3.2823997216 1.8075000000
538 1 20.5598349660 -1.5126952633 3.6150000000
539 1 23.0411942281 -4.6915066106 -1.8075000000
540 1 22.6867143903 -2.9218871251 0.0000000000
541 1 22.3322345526 -1.1516197160 1.8075000000
542 1 21.9777547149 0.6194219522 3.6150000000
543 1 24.4591139770 -2.5620247058 -1.8075000000
544 1 24.1046341392 -0.7913225223 0.0000000000
545 1 23.7501543015 0.9800367055 1.8075000000
546 1 23.3956744638 2.7521280903 3.6150000000
547 1 25.8770337258 -0.4316857414 -1.8075000000
548 1 25.5225538881 1.3399146988 0.0000000000
549 1 25.1680740504 3.1121309093 1.8075000000
550 1 24.8135942126 4.8849969490 3.6150000000
551 1 27.2949534747 1.6991732764 -1.8075000000
552 1 26.9404736370 3.4714795702 0.0000000000
553 1 26.5859937993 5.2443316029 1.8075000000
554 1 26.2315139615 7.0177339227 3.6150000000
555 1 28.7128732236 3.8302791318 -1.8075000000
556 1 28.3583933859 5.6031123672 0.0000000000
557 1 28.0039135482 7.3764095813 1.8075000000
558 1 27.6494337104 9.1501564968 3.6150000000
559 1 30.1307929725 5.9614263778 -1.8075000000
560 1 29.7763131348 7.7346328166 0.0000000000
561 1 29.4218332970 9.5082214878 1.8075000000
562 1 29.0673534593 11.2821678449 3.6150000000
563 1 31.5487127214 8.0924717170 -1.8075000000
564 1 31.1942328837 9.8659269000 0.0000000000
565 1 30.8397530459 11.6396895011 1.8075000000
566 1 30.4852732082 13.4137307812 3.6150000000
567 1 32.9666324703 10.2233234140 -1.8075000000
568 1 32.6121526325 11.9969312605 0.0000000000
569 1 32.2576727948 13.7707818498 1.8075000000
570 1 31.9031929571 15.5448461136 3.6150000000
571 1 34.3845522192 12.3539293043 -1.8075000000
572 1 34.0300723814 14.1276185244 0.0000000000
573 1 33.6755925437 15.9014967006 1.8075000000
574 1 33.3211127060 17.6755366106 3.6150000000
575 1 35.8024719681 14.4842656496 -1.8075000000
576 1 35.4479921303 16.2579851763 0.0000000000
577 1 35.0935122926 18.0318501117 1.8075000000
578 1 37.2203917169 16.6143279153 -1.8075000000
579 1 36.8659118792 18.3880423970 0.0000000000
580 1 12.7612761481 -17.7850296443 3.6150000000
581 1 14.5336757347 -17.4326774629 1.8075000000
582 1 14.1791958970 -15.6681158584 3.6150000000
583 1 16.3060753214 -17.0792390795 0.0000000000
584 1 15.9515954836 -15.3139615249 1.8075000000
585 1 15.5971156459 -13.5495189849 3.6150000000
586 1 18.0784749080 -16.7249678911 -1.8075000000
587 1 17.7239950702 -14.9589593010 0.0000000000
588 1 17.3695152325 -13.1935336634 1.8075000000
589 1 17.0150353948 -11.4285961894 3.6150000000
590 1 19.4963946569 -14.6033636358 -1.8075000000
591 1 19.1419148191 -12.8370464438 0.0000000000
592 1 18.7874349814 -11.0710213031 1.8075000000
593 1 18.4329551437 -9.3051285078 3.6150000000
594 1 20.9143144058 -12.4802573373 -1.8075000000
595 1 20.5598345680 -10.7133036698 0.0000000000
596 1 20.2053547303 -8.9463647081 1.8075000000
597 1 19.8508748926 -7.1792590978 3.6150000000
598 1 22.3322341546 -10.3555643003 -1.8075000000
599 1 21.9777543169 -8.5877615998 0.0000000000
600 1 21.6232744792 -6.8197493976 1.8075000000
601 1 21.2687946414 -5.0513566493 3.6150000000
602 1 23.7501539035 -8.2293641599 -1.8075000000
603 1 23.3956740658 -6.4606180543 0.0000000000
604 1 23.0411942281 -4.6915066106 1.8075000000
605 1 22.6867143903 -2.9218871251 3.6150000000
606 1 25.1680736524 -6.1018508689 -1.8075000000
607 1 24.8135938147 -4.3321650507 0.0000000000
608 1 24.4591139770 -2.5620247058 1.8075000000
609 1 24.1046341392 -0.7913225223 3.6150000000
610 1 26.5859934013 -3.9732786899 -1.8075000000
611 1 26.2315135636 -2.2027261415 0.0000000000
612 1 25.8770337258 -0.4316857414 1.8075000000
613 1 25.5225538881 1.3399146988 3.6150000000
614 1 28.0039131502 -1.8439171999 -1.8075000000
615 1 27.6494333125 -0.0726117609 0.0000000000
616 1 27.2949534747 1.6991732764 1.8075000000
617 1 26.9404736370 3.4714795702 3.6150000000
618 1 29.4218328991 0.2859803646 -1.8075000000
619 1 29.0673530613 2.0579077076 0.0000000000
620 1 28.7128732236 3.8302791318 1.8075000000
621 1 28.3583933859 5.6031123672 3.6150000000
622 1 30.8397526480 2.4161957606 -1.8075000000
623 1 30.4852728102 4.1886142594 0.0000000000
624 1 30.1307929725 5.9614263778 1.8075000000
625 1 29.7763131348 7.7346328166 3.6150000000
626 1 32.2576723968 4.5465537070 -1.8075000000
627 1 31.9031925591 6.3193439116 0.0000000000
628 1 31.5487127214 8.0924717170 1.8075000000
629 1 31.1942328837 9.8659269000 3.6150000000
630 1 33.6755921457 6.6769221539 -1.8075000000
631 1 33.3211123080 8.4499815983 0.0000000000
632 1 32.9666324703 10.2233234140 1.8075000000
633 1 32.6121526325 11.9969312605 3.6150000000
634 1 35.0935118946 8.8072078137 -1.8075000000
635 1 34.7390320569 10.5804527271 0.0000000000
636 1 34.3845522192 12.3539293043 1.8075000000
637 1 34.0300723814 14.1276185244 3.6150000000
638 1 36.5114316435 10.9373494420 -1.8075000000
639 1 36.1569518058 12.7107139208 0.0000000000