#LAMMPS data file
2504 atoms
2 atom types
-55.3988719000 55.3988719000 xlo xhi
-18.4329573000 18.4329573000 ylo yhi
-3.6150000000 3.6150000000 zlo zhi
0.0 0.0 0.0 xy xz yz

Atoms # atomic

1 1 0.3544806337 16.3295842541 -1.8075000000
2 1 0.0000007959 18.1265437955 0.0000000000
3 1 1.0634403091 12.7874256830 -1.8075000000
4 1 0.7089604714 14.5584344976 0.0000000000
5 1 0.3544806337 16.3295842541 1.8075000000
6 1 0.0000007959 18.1265437955 3.6150000000
7 1 2.4813600580 14.9711318090 -1.8075000000
8 1 2.1268802203 16.7783102895 0.0000000000
9 1 3.8992798069 17.1745763761 -1.8075000000
10 1 0.3544802357 7.0948211001 -1.8075000000
11 1 0.0000003980 8.8620472956 0.0000000000
12 1 1.7723999846 9.2459348119 -1.8075000000
13 1 1.4179201469 11.0165823199 0.0000000000
14 1 1.0634403091 12.7874256830 1.8075000000
15 1 0.7089604714 14.5584344976 3.6150000000
16 1 3.1903197335 11.4052408485 -1.8075000000
17 1 2.8358398957 13.1844145400 0.0000000000
18 1 2.4813600580 14.9711318090 1.8075000000
19 1 2.1268802203 16.7783102895 3.6150000000
20 1 4.6082394824 13.5749471002 -1.8075000000
21 1 4.2537596446 15.3676515998 0.0000000000
22 1 3.8992798069 17.1745763761 1.8075000000
23 1 6.0261592312 15.7499519510 -1.8075000000
24 1 5.6716793935 17.5503855002 0.0000000000
25 1 7.4440789801 17.9186678935 -1.8075000000
26 1 1.0634399112 3.5584267571 -1.8075000000
27 1 0.7089600734 5.3268064566 0.0000000000
28 1 0.3544802357 7.0948211001 1.8075000000
29 1 0.0000003980 8.8620472956 3.6150000000
30 1 2.4813596600 5.7053900569 -1.8075000000
31 1 2.1268798223 7.4755212753 0.0000000000
32 1 1.7723999846 9.2459348119 1.8075000000
33 1 1.4179201469 11.0165823199 3.6150000000
34 1 3.8992794089 7.8559413848 -1.8075000000
35 1 3.5447995712 9.6295900344 0.0000000000
36 1 3.1903197335 11.4052408485 1.8075000000
37 1 2.8358398957 13.1844145400 3.6150000000
38 1 5.3171991578 10.0113634710 -1.8075000000
39 1 4.9627193201 11.7907027018 0.0000000000
40 1 4.6082394824 13.5749471002 1.8075000000
41 1 4.2537596446 15.3676515998 3.6150000000
42 1 6.7351189067 12.1715313166 -1.8075000000
43 1 6.3806390690 13.9574927201 0.0000000000
44 1 6.0261592312 15.7499519510 1.8075000000
45 1 5.6716793935 17.5503855002 3.6150000000
46 1 8.1530386556 14.3335415003 -1.8075000000
47 1 7.7985588179 16.1238066754 0.0000000000
48 1 7.4440789801 17.9186678935 1.8075000000
49 1 9.5709584045 16.4927954845 -1.8075000000
50 1 9.2164785668 18.2834671214 0.0000000000
51 1 0.3544798377 -2.1225175310 -1.8075000000
52 1 0.0000000000 -0.3544869000 0.0000000000
53 1 1.7723995866 0.0216358457 -1.8075000000
54 1 1.4179197489 1.7899623495 0.0000000000
55 1 1.0634399112 3.5584267571 1.8075000000
56 1 0.7089600734 5.3268064566 3.6150000000
57 1 3.1903193355 2.1662417162 -1.8075000000
58 1 2.8358394978 3.9356032556 0.0000000000
59 1 2.4813596600 5.7053900569 1.8075000000
60 1 2.1268798223 7.4755212753 3.6150000000
61 1 4.6082390844 4.3123587236 -1.8075000000
62 1 4.2537592467 6.0836323057 0.0000000000
63 1 3.8992794089 7.8559413848 1.8075000000
64 1 3.5447995712 9.6295900344 3.6150000000
65 1 6.0261588333 6.4608663124 -1.8075000000
66 1 5.6716789955 8.2350747913 0.0000000000
67 1 5.3171991578 10.0113634710 1.8075000000
68 1 4.9627193201 11.7907027018 3.6150000000
69 1 7.4440785822 8.6121978045 -1.8075000000
70 1 7.0895987444 10.3902220286 0.0000000000
71 1 6.7351189067 12.1715313166 1.8075000000
72 1 6.3806390690 13.9574927201 3.6150000000
73 1 8.8619983311 10.7658780230 -1.8075000000
74 1 8.5075184933 12.5478059520 0.0000000000
75 1 8.1530386556 14.3335415003 1.8075000000
76 1 7.7985588179 16.1238066754 3.6150000000
77 1 10.2799180799 12.9202740260 -1.8075000000
78 1 9.9254382422 14.7049646167 0.0000000000
79 1 9.5709584045 16.4927954845 1.8075000000
80 1 9.2164785668 18.2834671214 3.6150000000
81 1 11.6978378288 15.0731672015 -1.8075000000
82 1 11.3433579911 16.8588101673 0.0000000000
83 1 13.1157575777 17.2228722191 -1.8075000000
84 1 1.0634395132 -5.6575402454 -1.8075000000
85 1 0.7089596755 -3.8903000237 0.0000000000
86 1 0.3544798377 -2.1225175310 1.8075000000
87 1 0.0000000000 -0.3544869000 3.6150000000
88 1 2.4813592621 -3.5137246548 -1.8075000000
89 1 2.1268794243 -1.7463398249 0.0000000000
90 1 1.7723995866 0.0216358457 1.8075000000
91 1 1.4179197489 1.7899623495 3.6150000000
92 1 3.8992790110 -1.3707422751 -1.8075000000
93 1 3.5447991732 0.3974121934 0.0000000000
94 1 3.1903193355 2.1662417162 1.8075000000
95 1 2.8358394978 3.9356032556 3.6150000000
96 1 5.3171987599 0.7725218622 -1.8075000000
97 1 4.9627189221 2.5419949859 0.0000000000
98 1 4.6082390844 4.3123587236 1.8075000000
99 1 4.2537592467 6.0836323057 3.6150000000
100 1 6.7351185087 2.9168700749 -1.8075000000
101 1 6.3806386710 4.6882210439 0.0000000000
102 1 6.0261588333 6.4608663124 1.8075000000
103 1 5.6716789955 8.2350747913 3.6150000000
104 1 8.1530382576 5.0628126752 -1.8075000000
105 1 7.7985584199 6.8365758027 0.0000000000
106 1 7.4440785822 8.6121978045 1.8075000000
107 1 7.0895987444 10.3902220286 3.6150000000
108 1 9.5709580065 7.2104621030 -1.8075000000
109 1 9.2164781688 8.9869738855 0.0000000000
110 1 8.8619983311 10.7658780230 1.8075000000
111 1 8.5075184933 12.5478059520 3.6150000000
112 1 10.9888777554 9.3593886943 -1.8075000000
113 1 10.6343979177 11.1385402111 0.0000000000
114 1 10.2799180799 12.9202740260 1.8075000000
115 1 9.9254382422 14.7049646167 3.6150000000
116 1 12.4067975043 11.5086211019 -1.8075000000
117 1 12.0523176666 13.2897574709 0.0000000000
118 1 11.6978378288 15.0731672015 1.8075000000
119 1 11.3433579911 16.8588101673 3.6150000000
120 1 13.8247172532 13.6569386328 -1.8075000000
121 1 13.4702374154 15.4390836989 0.0000000000
122 1 13.1157575777 17.2228722191 1.8075000000
123 1 15.2426370021 15.8033237421 -1.8075000000
124 1 14.8881571643 17.5855658326 0.0000000000
125 1 16.6605567510 17.9472459415 -1.8075000000
126 1 0.3544794398 -11.3367030030 -1.8075000000
127 1 -0.0000003980 -9.5710210956 0.0000000000
128 1 1.7723991887 -9.1885606857 -1.8075000000
129 1 1.4179193509 -7.4238345773 0.0000000000
130 1 1.0634395132 -5.6575402454 1.8075000000
131 1 0.7089596755 -3.8903000237 3.6150000000
132 1 3.1903189375 -7.0453762807 -1.8075000000
133 1 2.8358390998 -5.2802122431 0.0000000000
134 1 2.4813592621 -3.5137246548 1.8075000000
135 1 2.1268794243 -1.7463398249 3.6150000000
136 1 4.6082386864 -4.9041754698 -1.8075000000
137 1 4.2537588487 -3.1380273000 0.0000000000
138 1 3.8992790110 -1.3707422751 1.8075000000
139 1 3.5447991732 0.3974121934 3.6150000000
140 1 6.0261584353 -2.7634498754 -1.8075000000
141 1 5.6716785976 -0.9960022391 0.0000000000
142 1 5.3171987599 0.7725218622 1.8075000000
143 1 4.9627189221 2.5419949859 3.6150000000
144 1 7.4440781842 -0.6223269696 -1.8075000000
145 1 7.0895983465 1.1466937356 0.0000000000
146 1 6.7351185087 2.9168700749 1.8075000000
147 1 6.3806386710 4.6882210439 3.6150000000
148 1 8.8619979331 1.5197224492 -1.8075000000
149 1 8.5075180954 3.2905866868 0.0000000000
150 1 8.1530382576 5.0628126752 1.8075000000
151 1 7.7985584199 6.8365758027 3.6150000000
152 1 10.2799176820 3.6629579173 -1.8075000000
153 1 9.9254378442 5.4358907432 0.0000000000
154 1 9.5709580065 7.2104621030 1.8075000000
155 1 9.2164781688 8.9869738855 3.6150000000
156 1 11.6978374309 5.8073490538 -1.8075000000
157 1 11.3433575931 7.5824330133 0.0000000000
158 1 10.9888777554 9.3593886943 1.8075000000
159 1 10.6343979177 11.1385402111 3.6150000000
160 1 13.1157571798 7.9525460333 -1.8075000000
161 1 12.7612773420 9.7296195330 0.0000000000
162 1 12.4067975043 11.5086211019 1.8075000000
163 1 12.0523176666 13.2897574709 3.6150000000
164 1 14.5336769286 10.0979230926 -1.8075000000
165 1 14.1791970909 11.8765571964 0.0000000000
166 1 13.8247172532 13.6569386328 1.8075000000
167 1 13.4702374154 15.4390836989 3.6150000000
168 1 15.9515966775 12.2427338571 -1.8075000000
169 1 15.5971168398 14.0223333356 0.0000000000
170 1 15.2426370021 15.8033237421 1.8075000000
171 1 14.8881571643 17.5855658326 3.6150000000
172 1 17.3695164264 14.3863205647 -1.8075000000
173 1 17.0150365887 16.1662915011 0.0000000000
174 1 16.6605567510 17.9472459415 1.8075000000
175 1 18.7874361753 16.5282626545 -1.8075000000
176 1 18.4329563376 18.3081406342 0.0000000000
177 1 1.0634391152 -14.8545707968 -1.8075000000
178 1 0.7089592775 -13.0992461431 0.0000000000
179 1 0.3544794398 -11.3367030030 1.8075000000
180 1 -0.0000003980 -9.5710210956 3.6150000000
181 1 2.4813588641 -12.7082258681 -1.8075000000
182 1 2.1268790264 -10.9506648742 0.0000000000
183 1 1.7723991887 -9.1885606857 1.8075000000
184 1 1.4179193509 -7.4238345773 3.6150000000
185 1 3.8992786130 -10.5689001186 -1.8075000000
186 1 3.5447987753 -8.8085892660 0.0000000000
187 1 3.1903189375 -7.0453762807 1.8075000000
188 1 2.8358390998 -5.2802122431 3.6150000000
189 1 5.3171983619 -8.4314395398 -1.8075000000
190 1 4.9627185242 -6.6688163690 0.0000000000
191 1 4.6082386864 -4.9041754698 1.8075000000
192 1 4.2537588487 -3.1380273000 3.6150000000
193 1 6.7351181108 -6.2942445630 -1.8075000000
194 1 6.3806382730 -4.5296226067 0.0000000000
195 1 6.0261584353 -2.7634498754 1.8075000000
196 1 5.6716785976 -0.9960022391 3.6150000000
197 1 8.1530378597 -4.1566066967 -1.8075000000
198 1 7.7985580219 -2.3901343825 0.0000000000
199 1 7.4440781842 -0.6223269696 1.8075000000
200 1 7.0895983465 1.1466937356 3.6150000000
201 1 9.5709576085 -2.0181447618 -1.8075000000
202 1 9.2164777708 -0.2498543812 0.0000000000
203 1 8.8619979331 1.5197224492 1.8075000000
204 1 8.5075180954 3.2905866868 3.6150000000
205 1 10.9888773574 0.1213407842 -1.8075000000
206 1 10.6343975197 1.8914757539 0.0000000000
207 1 10.2799176820 3.6629579173 1.8075000000
208 1 9.9254378442 5.4358907432 3.6150000000
209 1 12.4067971063 2.2618920373 -1.8075000000
210 1 12.0523172686 4.0338923480 0.0000000000
211 1 11.6978374309 5.8073490538 1.8075000000
212 1 11.3433575931 7.5824330133 3.6150000000
213 1 13.8247168552 4.4033804658 -1.8075000000
214 1 13.4702370175 6.1771925301 0.0000000000
215 1 13.1157571798 7.9525460333 1.8075000000
216 1 12.7612773420 9.7296195330 3.6150000000
217 1 15.2426366041 6.5455013056 -1.8075000000
218 1 14.8881567664 8.3209445501 0.0000000000
219 1 14.5336769286 10.0979230926 1.8075000000
220 1 14.1791970909 11.8765571964 3.6150000000
221 1 16.6605563530 8.6878082069 -1.8075000000
222 1 16.3060765153 10.4645668870 0.0000000000
223 1 15.9515966775 12.2427338571 1.8075000000
224 1 15.5971168398 14.0223333356 3.6150000000
225 1 18.0784761019 10.8297966209 -1.8075000000
226 1 17.7239962641 12.6074671431 0.0000000000
227 1 17.3695164264 14.3863205647 1.8075000000
228 1 17.0150365887 16.1662915011 3.6150000000
229 1 19.4963958508 12.9710087255 -1.8075000000
230 1 19.1419160130 14.7491785994 0.0000000000
231 1 18.7874361753 16.5282626545 1.8075000000
232 1 18.4329563376 18.3081406342 3.6150000000
233 1 20.9143155996 15.1111142226 -1.8075000000
234 1 20.5598357619 16.8894313345 0.0000000000
235 1 22.3322353485 17.2499386469 -1.8075000000
236 1 1.7723987907 -18.2726301768 -1.8075000000
237 1 1.4179189530 -16.5897116110 0.0000000000
238 1 1.0634391152 -14.8545707968 1.8075000000
239 1 0.7089592775 -13.0992461431 3.6150000000
240 1 3.1903185396 -16.1930878415 -1.8075000000
241 1 2.8358387018 -14.4576348852 0.0000000000
242 1 2.4813588641 -12.7082258681 1.8075000000
243 1 2.1268790264 -10.9506648742 3.6150000000
244 1 4.6082382885 -14.0746554813 -1.8075000000
245 1 4.2537584507 -12.3248860459 0.0000000000
246 1 3.8992786130 -10.5689001186 1.8075000000
247 1 3.5447987753 -8.8085892660 3.6150000000
248 1 6.0261580373 -11.9477630278 -1.8075000000
249 1 5.6716781996 -10.1913637833 0.0000000000
250 1 5.3171983619 -8.4314395398 1.8075000000
251 1 4.9627185242 -6.6688163690 3.6150000000
252 1 7.4440777862 -9.8173524472 -1.8075000000
253 1 7.0895979485 -8.0569600055 0.0000000000
254 1 6.7351181108 -6.2942445630 1.8075000000
255 1 6.3806382730 -4.5296226067 3.6150000000
256 1 8.8619975351 -7.6848028907 -1.8075000000
257 1 8.5075176974 -5.9215676981 0.0000000000
258 1 8.1530378597 -4.1566066967 1.8075000000
259 1 7.7985580219 -2.3901343825 3.6150000000
260 1 10.2799172840 -5.5506151257 -1.8075000000
261 1 9.9254374463 -3.7850952173 0.0000000000
262 1 9.5709576085 -2.0181447618 1.8075000000
263 1 9.2164777708 -0.2498543812 3.6150000000
264 1 11.6978370329 -3.4150114794 -1.8075000000
265 1 11.3433571952 -1.6474887381 0.0000000000
266 1 10.9888773574 0.1213407842 1.8075000000
267 1 10.6343975197 1.8914757539 3.6150000000
268 1 13.1157567818 -1.2781352640 -1.8075000000
269 1 12.7612769441 0.4912376713 0.0000000000
270 1 12.4067971063 2.2618920373 1.8075000000
271 1 12.0523172686 4.0338923480 3.6150000000
272 1 14.5336765307 0.8598583725 -1.8075000000
273 1 14.1791966929 2.6309700278 0.0000000000
274 1 13.8247168552 4.4033804658 1.8075000000
275 1 13.4702370175 6.1771925301 3.6150000000
276 1 15.9515962796 2.9987543017 -1.8075000000
277 1 15.5971164418 4.7714732471 0.0000000000
278 1 15.2426366041 6.5455013056 1.8075000000
279 1 14.8881567664 8.3209445501 3.6150000000
280 1 17.3695160284 5.1382601010 -1.8075000000
281 1 17.0150361907 6.9123974981 0.0000000000
282 1 16.6605563530 8.6878082069 1.8075000000
283 1 16.3060765153 10.4645668870 3.6150000000
284 1 18.7874357773 7.2780203788 -1.8075000000
285 1 18.4329559396 9.0533217507 0.0000000000
286 1 18.0784761019 10.8297966209 1.8075000000
287 1 17.7239962641 12.6074671431 3.6150000000
288 1 20.2053555262 9.4176586106 -1.8075000000
289 1 19.8508756885 11.1938249750 0.0000000000
290 1 19.4963958508 12.9710087255 1.8075000000
291 1 19.1419160130 14.7491785994 3.6150000000
292 1 21.6232752751 11.5568308768 -1.8075000000
293 1 21.2687954374 13.3335573396 0.0000000000
294 1 20.9143155996 15.1111142226 1.8075000000
295 1 20.5598357619 16.8894313345 3.6150000000
296 1 23.0411950240 13.6952702887 -1.8075000000
297 1 22.6867151863 15.4722837602 0.0000000000
298 1 22.3322353485 17.2499386469 1.8075000000
299 1 24.4591147729 15.8328076511 -1.8075000000
300 1 24.1046349352 17.6098902534 0.0000000000
301 1 25.8770345218 17.9693674481 -1.8075000000
302 1 1.7723987907 -18.2726301768 1.8075000000
303 1 1.4179189530 -16.5897116110 3.6150000000
304 1 3.5447983773 -17.9125941363 0.0000000000
305 1 3.1903185396 -16.1930878415 1.8075000000
306 1 2.8358387018 -14.4576348852 3.6150000000
307 1 5.3171979639 -17.5525029627 -1.8075000000
308 1 4.9627181262 -15.8166939535 0.0000000000
309 1 4.6082382885 -14.0746554813 1.8075000000
310 1 4.2537584507 -12.3248860459 3.6150000000
311 1 6.7351177128 -15.4476159489 -1.8075000000
312 1 6.3806378751 -13.6998793924 0.0000000000
313 1 6.0261580373 -11.9477630278 1.8075000000
314 1 5.6716781996 -10.1913637833 3.6150000000
315 1 8.1530374617 -13.3297537294 -1.8075000000
316 1 7.7985576240 -11.5750198162 0.0000000000
317 1 7.4440777862 -9.8173524472 1.8075000000
318 1 7.0895979485 -8.0569600055 3.6150000000
319 1 9.5709572106 -11.2052907688 -1.8075000000
320 1 9.2164773729 -9.4460944967 0.0000000000
321 1 8.8619975351 -7.6848028907 1.8075000000
322 1 8.5075176974 -5.9215676981 3.6150000000
323 1 10.9888769595 -9.0769607064 -1.8075000000
324 1 10.6343971217 -7.3145990287 0.0000000000
325 1 10.2799172840 -5.5506151257 1.8075000000
326 1 9.9254374463 -3.7850952173 3.6150000000
327 1 12.4067967084 -6.9460285705 -1.8075000000
328 1 12.0523168706 -5.1812012716 0.0000000000
329 1 11.6978370329 -3.4150114794 1.8075000000
330 1 11.3433571952 -1.6474887381 3.6150000000
331 1 13.8247164572 -4.8131537241 -1.8075000000
332 1 13.4702366195 -3.0462599500 0.0000000000
333 1 13.1157567818 -1.2781352640 1.8075000000
334 1 12.7612769441 0.4912376713 3.6150000000
335 1 15.2426362061 -2.6787395358 -1.8075000000
336 1 14.8881563684 -0.9100273383 0.0000000000
337 1 14.5336765307 0.8598583725 1.8075000000
338 1 14.1791966929 2.6309700278 3.6150000000
339 1 16.6605559550 -0.5430913794 -1.8075000000
340 1 16.3060761173 1.2272565774 0.0000000000
341 1 15.9515962796 2.9987543017 1.8075000000
342 1 15.5971164418 4.7714732471 3.6150000000
343 1 18.0784757039 1.5935069374 -1.8075000000
344 1 17.7239958662 3.3653201863 0.0000000000
345 1 17.3695160284 5.1382601010 1.8075000000
346 1 17.0150361907 6.9123974981 3.6150000000
347 1 19.4963954528 3.7307605296 -1.8075000000
348 1 19.1419156151 5.5038504444 0.0000000000
349 1 18.7874357773 7.2780203788 1.8075000000
350 1 18.4329559396 9.0533217507 3.6150000000
351 1 20.9143152017 5.8683603302 -1.8075000000
352 1 20.5598353640 7.6425103889 0.0000000000
353 1 20.2053555262 9.4176586106 1.8075000000
354 1 19.8508756885 11.1938249750 3.6150000000
355 1 22.3322349506 8.0060001442 -1.8075000000
356 1 21.9777551128 9.7809739338 0.0000000000
357 1 21.6232752751 11.5568308768 1.8075000000
358 1 21.2687954374 13.3335573396 3.6150000000
359 1 23.7501546995 10.1434029033 -1.8075000000
360 1 23.3956748617 11.9189630038 0.0000000000
361 1 23.0411950240 13.6952702887 1.8075000000
362 1 22.6867151863 15.4722837602 3.6150000000
363 1 25.1680744483 12.2803444577 -1.8075000000
364 1 24.8135946106 14.0562730380 0.0000000000
365 1 24.4591147729 15.8328076511 1.8075000000
366 1 24.1046349352 17.6098902534 3.6150000000
367 1 26.5859941972 14.4166666663 -1.8075000000
368 1 26.2315143595 16.1927804413 0.0000000000
369 1 25.8770345218 17.9693674481 1.8075000000
370 1 28.0039139461 16.5522776692 -1.8075000000
371 1 27.6494341084 18.3284343053 0.0000000000
372 1 3.5447983773 -17.9125941363 3.6150000000
373 1 5.3171979639 -17.5525029627 1.8075000000
374 1 4.9627181262 -15.8166939535 3.6150000000
375 1 7.0895975505 -17.1923838005 0.0000000000
376 1 6.7351177128 -15.4476159489 1.8075000000
377 1 6.3806378751 -13.6998793924 3.6150000000
378 1 8.8619971372 -16.8322646429 -1.8075000000
379 1 8.5075172994 -15.0818315141 0.0000000000
380 1 8.1530374617 -13.3297537294 1.8075000000
381 1 7.7985576240 -11.5750198162 3.6150000000
382 1 10.2799168860 -14.7178102009 -1.8075000000
383 1 9.9254370483 -12.9624179776 0.0000000000
384 1 9.5709572106 -11.2052907688 1.8075000000
385 1 9.2164773729 -9.4460944967 3.6150000000
386 1 11.6978366349 -12.5968844760 -1.8075000000
387 1 11.3433567972 -10.8376836768 0.0000000000
388 1 10.9888769595 -9.0769607064 1.8075000000
389 1 10.6343971217 -7.3145990287 3.6150000000
390 1 13.1157563838 -10.4716314409 -1.8075000000
391 1 12.7612765461 -8.7094878985 0.0000000000
392 1 12.4067967084 -6.9460285705 1.8075000000
393 1 12.0523168706 -5.1812012716 3.6150000000
394 1 14.5336761327 -8.3433465345 -1.8075000000
395 1 14.1791962950 -6.5788356267 0.0000000000
396 1 13.8247164572 -4.8131537241 1.8075000000
397 1 13.4702366195 -3.0462599500 3.6150000000
398 1 15.9515958816 -6.2128209533 -1.8075000000
399 1 15.5971160439 -4.4463216358 0.0000000000
400 1 15.2426362061 -2.6787395358 1.8075000000
401 1 14.8881563684 -0.9100273383 3.6150000000
402 1 17.3695156305 -4.0805753023 -1.8075000000
403 1 17.0150357928 -2.3123498370 0.0000000000
404 1 16.6605559550 -0.5430913794 1.8075000000
405 1 16.3060761173 1.2272565774 3.6150000000
406 1 18.7874353794 -1.9469939440 -1.8075000000
407 1 18.4329555416 -0.1772442567 0.0000000000
408 1 18.0784757039 1.5935069374 1.8075000000
409 1 17.7239958662 3.3653201863 3.6150000000
410 1 20.2053551283 0.1876013592 -1.8075000000
411 1 19.8508752905 1.9586959771 0.0000000000
412 1 19.4963954528 3.7307605296 1.8075000000
413 1 19.1419156151 5.5038504444 3.6150000000
414 1 21.6232748771 2.3229149659 -1.8075000000
415 1 21.2687950394 4.0951754565 0.0000000000
416 1 20.9143152017 5.8683603302 1.8075000000
417 1 20.5598353640 7.6425103889 3.6150000000
418 1 23.0411946260 4.4586652100 -1.8075000000
419 1 22.6867147883 6.2319037956 0.0000000000
420 1 22.3322349506 8.0060001442 1.8075000000
421 1 21.9777551128 9.7809739338 3.6150000000
422 1 24.4591143749 6.5945878843 -1.8075000000
423 1 24.1046345372 8.3686101707 0.0000000000
424 1 23.7501546995 10.1434029033 1.8075000000
425 1 23.3956748617 11.9189630038 3.6150000000
426 1 25.8770341238 8.7304475200 -1.8075000000
427 1 25.5225542861 10.5050616587 0.0000000000
428 1 25.1680744483 12.2803444577 1.8075000000
429 1 24.8135946106 14.0562730380 3.6150000000
430 1 27.2949538727 10.8660492996 -1.8075000000
431 1 26.9404740350 12.6410772986 0.0000000000
432 1 26.5859941972 14.4166666663 1.8075000000
433 1 26.2315143595 16.1927804413 3.6150000000
434 1 28.7128736216 13.0012464778 -1.8075000000
435 1 28.3583937838 14.7765334899 0.0000000000
436 1 28.0039139461 16.5522776692 1.8075000000
437 1 27.6494341084 18.3284343053 3.6150000000
438 1 30.1307933705 15.1359412646 -1.8075000000
439 1 29.7763135327 16.9113606632 0.0000000000
440 1 31.5487131194 17.2700799337 -1.8075000000
441 1 7.0895975505 -17.1923838005 3.6150000000
442 1 8.8619971372 -16.8322646429 1.8075000000
443 1 8.5075172994 -15.0818315141 3.6150000000
444 1 10.9888765615 -18.2264813308 -1.8075000000
445 1 10.6343967238 -16.4721734874 0.0000000000
446 1 10.2799168860 -14.7178102009 1.8075000000
447 1 9.9254370483 -12.9624179776 3.6150000000
448 1 12.4067963104 -16.1121375068 -1.8075000000
449 1 12.0523164727 -14.3548680820 0.0000000000
450 1 11.6978366349 -12.5968844760 1.8075000000
451 1 11.3433567972 -10.8376836768 3.6150000000
452 1 13.8247160593 -13.9926639339 -1.8075000000
453 1 13.4702362215 -12.2326035857 0.0000000000
454 1 13.1157563838 -10.4716314409 1.8075000000
455 1 12.7612765461 -8.7094878985 3.6150000000
456 1 15.2426358082 -11.8692540105 -1.8075000000
457 1 14.8881559704 -10.1067706141 0.0000000000
458 1 14.5336761327 -8.3433465345 1.8075000000
459 1 14.1791962950 -6.5788356267 3.6150000000
460 1 16.6605555571 -9.7428628025 -1.8075000000
461 1 16.3060757193 -7.9783025907 0.0000000000
462 1 15.9515958816 -6.2128209533 1.8075000000
463 1 15.5971160439 -4.4463216358 3.6150000000
464 1 18.0784753059 -7.6141871372 -1.8075000000
465 1 17.7239954682 -5.8478292379 0.0000000000
466 1 17.3695156305 -4.0805753023 1.8075000000
467 1 17.0150357928 -2.3123498370 3.6150000000
468 1 19.4963950548 -5.4837373239 -1.8075000000
469 1 19.1419152171 -3.7158028614 0.0000000000
470 1 18.7874353794 -1.9469939440 1.8075000000
471 1 18.4329555416 -0.1772442567 3.6150000000
472 1 20.9143148037 -3.3519067586 -1.8075000000
473 1 20.5598349660 -1.5825797443 0.0000000000
474 1 20.2053551283 0.1876013592 1.8075000000
475 1 19.8508752905 1.9586959771 3.6150000000
476 1 22.3322345526 -1.2190206265 -1.8075000000
477 1 21.9777547149 0.5515329867 0.0000000000
478 1 21.6232748771 2.3229149659 1.8075000000
479 1 21.2687950394 4.0951754565 3.6150000000
480 1 23.7501543015 0.9146354601 -1.8075000000
481 1 23.3956744638 2.6862547698 0.0000000000
482 1 23.0411946260 4.4586652100 1.8075000000
483 1 22.6867147883 6.2319037956 3.6150000000
484 1 25.1680740504 3.0488024422 -1.8075000000
485 1 24.8135942126 4.8213256225 0.0000000000
486 1 24.4591143749 6.5945878843 1.8075000000
487 1 24.1046345372 8.3686101707 3.6150000000
488 1 26.5859937993 5.1832455798 -1.8075000000
489 1 26.2315139615 6.9565102193 0.0000000000
490 1 25.8770341238 8.7304475200 1.8075000000
491 1 25.5225542861 10.5050616587 3.6150000000
492 1 28.0039135482 7.3177582015 -1.8075000000
493 1 27.6494337104 9.0916059793 0.0000000000
494 1 27.2949538727 10.8660492996 1.8075000000
495 1 26.9404740350 12.6410772986 3.6150000000
496 1 29.4218332970 9.4521670701 -1.8075000000
497 1 29.0673534593 11.2264501800 0.0000000000
498 1 28.7128736216 13.0012464778 1.8075000000
499 1 28.3583937838 14.7765334899 3.6150000000
500 1 30.8397530459 11.5863361215 -1.8075000000
501 1 30.4852732082 13.3609230823 0.0000000000
502 1 30.1307933705 15.1359412646 1.8075000000
503 1 29.7763135327 16.9113606632 3.6150000000
504 1 32.2576727948 13.7201669499 -1.8075000000
505 1 31.9031929571 15.4949463299 0.0000000000
506 1 31.5487131194 17.2700799337 1.8075000000
507 1 33.6755925437 15.8535959733 -1.8075000000
508 1 33.3211127060 17.6284776114 0.0000000000
509 1 35.0935122926 17.9865892301 -1.8075000000
510 1 10.9888765615 -18.2264813308 1.8075000000
511 1 10.6343967238 -16.4721734874 3.6150000000
512 1 12.7612761481 -17.8693257962 0.0000000000
513 1 12.4067963104 -16.1121375068 1.8075000000
514 1 12.0523164727 -14.3548680820 3.6150000000
515 1 14.5336757347 -17.5115960751 -1.8075000000
516 1 14.1791958970 -15.7521822832 0.0000000000
517 1 13.8247160593 -13.9926639339 1.8075000000
518 1 13.4702362215 -12.2326035857 3.6150000000
519 1 15.9515954836 -15.3923311541 -1.8075000000
520 1 15.5971156459 -13.6310139449 0.0000000000
521 1 15.2426358082 -11.8692540105 1.8075000000
522 1 14.8881559704 -10.1067706141 3.6150000000
523 1 17.3695152325 -13.2698132208 -1.8075000000
524 1 17.0150353948 -11.5066390634 0.0000000000
525 1 16.6605555571 -9.7428628025 1.8075000000
526 1 16.3060757193 -7.9783025907 3.6150000000
527 1 18.7874349814 -11.1446327922 -1.8075000000
528 1 18.4329551437 -9.3797466270 0.0000000000
529 1 18.0784753059 -7.6141871372 1.8075000000
530 1 17.7239954682 -5.8478292379 3.6150000000
531 1 20.2053547303 -9.0173086295 -1.8075000000
532 1 19.8508748926 -7.2508748031 0.0000000000
533 1 19.4963950548 -5.4837373239 1.8075000000
534 1 19.1419152171 -3.7158028614 3.6150000000
535 1 21.6232744792 -6.8882692954 -1.8075000000
536 1 21.2687946414 -5.1204450937 0.0000000000
537 1 20.9143148037 -3.3519067586 1.8075000000
538 1 20.5598349660 -1.5825797443 3.6150000000
539 1 23.0411942281 -4.7578689787 -1.8075000000
540 1 22.6867143903 -2.9888008753 0.0000000000
541 1 22.3322345526 -1.2190206265 1.8075000000
542 1 21.9777547149 0.5515329867 3.6150000000
543 1 24.4591139770 -2.6264084410 -1.8075000000
544 1 24.1046341392 -0.8562359045 0.0000000000
545 1 23.7501543015 0.9146354601 1.8075000000
546 1 23.3956744638 2.6862547698 3.6150000000
547 1 25.8770337258 -0.4941510524 -1.8075000000
548 1 25.5225538881 1.2769890164 0.0000000000
549 1 25.1680740504 3.0488024422 1.8075000000
550 1 24.8135942126 4.8213256225 3.6150000000
551 1 27.2949534747 1.6386681578 -1.8075000000
552 1 26.9404736370 3.4106392005 0.0000000000
553 1 26.5859937993 5.1832455798 1.8075000000
554 1 26.2315139615 6.9565102193 3.6150000000
555 1 28.7128732236 3.7718394177 -1.8075000000
556 1 28.3583933859 5.5445058706 0.0000000000
557 1 28.0039135482 7.3177582015 1.8075000000
558 1 27.6494337104 9.0916059793 3.6150000000
559 1 30.1307929725 5.9051789301 -1.8075000000
560 1 29.7763131348 7.6784091633 0.0000000000
561 1 29.4218332970 9.4521670701 1.8075000000
562 1 29.0673534593 11.2264501800 3.6150000000
563 1 31.5487127214 8.0385310314 -1.8075000000
564 1 31.1942328837 9.8122013643 0.0000000000
565 1 30.8397530459 11.5863361215 1.8075000000
566 1 30.4852732082 13.3609230823 3.6150000000
567 1 32.9666324703 10.1717698597 -1.8075000000
568 1 32.6121526325 11.9457683917 0.0000000000
569 1 32.2576727948 13.7201669499 1.8075000000
570 1 31.9031929571 15.4949463299 3.6150000000
571 1 34.3845522192 12.3047994060 -1.8075000000
572 1 34.0300723814 14.0790287543 0.0000000000
573 1 33.6755925437 15.8535959733 1.8075000000
574 1 33.3211127060 17.6284776114 3.6150000000
575 1 35.8024719681 14.4375516650 -1.8075000000
576 1 35.4479921303 16.2119302264 0.0000000000
577 1 35.0935122926 17.9865892301 1.8075000000
578 1 37.2203917169 16.5699832415 -1.8075000000
579 1 36.8659118792 18.3444450521 0.0000000000
580 1 12.7612761481 -17.8693257962 3.6150000000
581 1 14.5336757347 -17.5115960751 1.8075000000
582 1 14.1791958970 -15.7521822832 3.6150000000
583 1 16.3060753214 -17.1535231616 0.0000000000
584 1 15.9515954836 -15.3923311541 1.8075000000
585 1 15.5971156459 -13.6310139449 3.6150000000
586 1 18.0784749080 -16.7952534616 -1.8075000000
587 1 17.7239950702 -15.0326047078 0.0000000000
588 1 17.3695152325 -13.2698132208 1.8075000000
589 1 17.0150353948 -11.5066390634 3.6150000000
590 1 19.4963946569 -14.6730204494 -1.8075000000
591 1 19.1419148191 -12.9089987882 0.0000000000
592 1 18.7874349814 -11.1446327922 1.8075000000
593 1 18.4329551437 -9.3797466270 3.6150000000
594 1 20.9143144058 -12.5485307170 -1.8075000000
595 1 20.5598345680 -10.7831506410 0.0000000000
596 1 20.2053547303 -9.0173086295 1.8075000000
597 1 19.8508748926 -7.2508748031 3.6150000000
598 1 22.3322341546 -10.4221328408 -1.8075000000
599 1 21.9777543169 -8.6554655604 0.0000000000
600 1 21.6232744792 -6.8882692954 1.8075000000
601 1 21.2687946414 -5.1204450937 3.6150000000
602 1 23.7501539035 -8.2941535151 -1.8075000000
603 1 23.3956740658 -6.5262939083 0.0000000000
604 1 23.0411942281 -4.7578689787 1.8075000000
605 1 22.6867143903 -2.9888008753 3.6150000000
606 1 25.1680736524 -6.1648853949 -1.8075000000
607 1 24.8135938147 -4.3959375439 0.0000000000
608 1 24.4591139770 -2.6264084410 1.8075000000
609 1 24.1046341392 -0.8562359045 3.6150000000
610 1 26.5859934013 -4.0345885536 -1.8075000000
611 1 26.2315135636 -2.2646605785 0.0000000000
612 1 25.8770337258 -0.4941510524 1.8075000000
613 1 25.5225538881 1.2769890164 3.6150000000
614 1 28.0039131502 -1.9034952832 -1.8075000000
615 1 27.6494333125 -0.1326977687 0.0000000000
616 1 27.2949534747 1.6386681578 1.8075000000
617 1 26.9404736370 3.4106392005 3.6150000000
618 1 29.4218328991 0.2281861154 -1.8075000000
619 1 29.0673530613 1.9997411103 0.0000000000
620 1 28.7128732236 3.7718394177 1.8075000000
621 1 28.3583933859 5.5445058706 3.6150000000
622 1 30.8397526480 2.3602697095 -1.8075000000
623 1 30.4852728102 4.1324703126 0.0000000000
624 1 30.1307929725 5.9051789301 1.8075000000
625 1 29.7763131348 7.6784091633 3.6150000000
626 1 32.2576723968 4.4925920865 -1.8075000000
627 1 31.9031925591 6.2653291199 0.0000000000
628 1 31.5487127214 8.0385310314 1.8075000000
629 1 31.1942328837 9.8122013643 3.6150000000
630 1 33.6755921457 6.6250132970 -1.8075000000
631 1 33.3211123080 8.3981832201 0.0000000000
632 1 32.9666324703 10.1717698597 1.8075000000
633 1 32.6121526325 11.9457683917 3.6150000000
634 1 35.0935118946 8.7574175915 -1.8075000000
635 1 34.7390320569 10.5309252847 0.0000000000
636 1 34.3845522192 12.3047994060 1.8075000000
637 1 34.0300723814 14.0790287543 3.6150000000
638 1 36.5114316435 10.8897132757 -1.8075000000
639 1 36.1569518058 12.6634741617 0.0000000000