ITEM: TIMESTEP
0
ITEM: NUMBER OF ATOMS
2504
ITEM: BOX BOUNDS xy xz yz mm pp pp
-5.5398871900000003e+01 5.5398871900000003e+01 0.0000000000000000e+00
-1.8432957300000002e+01 1.8432957300000002e+01 0.0000000000000000e+00
-3.6150000000000002e+00 3.6150000000000002e+00 0.0000000000000000e+00
ITEM: ATOMS id type x y z c_csym c_energy
1 1 0.354481 16.3296 -2.7075 0.0231569 -3.5087
2 1 7.959e-07 18.1265 -0.9 0.0554652 -3.52342
3 1 1.06344 12.7874 -2.7075 0.00115322 -3.54114
4 1 0.70896 14.5584 -0.9 0.00534899 -3.53064
5 1 0.354481 16.3296 0.9075 0.0231569 -3.5087
6 1 7.959e-07 18.1265 2.715 0.0554652 -3.52342
7 1 2.48136 14.9711 -2.7075 0.00317408 -3.5374
8 1 2.12688 16.7783 -0.9 0.0115355 -3.54674
9 1 3.89928 17.1746 -2.7075 0.00663464 -3.54438
10 1 0.35448 7.09482 -2.7075 4.77131e-05 -3.51201
11 1 3.98e-07 8.86205 -0.9 0.000110209 -3.53036
12 1 1.7724 9.24593 -2.7075 0.000134556 -3.53949
13 1 1.41792 11.0166 -0.9 0.000353918 -3.53887
14 1 1.06344 12.7874 0.9075 0.00115322 -3.54114
15 1 0.70896 14.5584 2.715 0.00534899 -3.53064
16 1 3.19032 11.4052 -2.7075 0.000290139 -3.53887
17 1 2.83584 13.1844 -0.9 0.000822258 -3.53776
18 1 2.48136 14.9711 0.9075 0.00317408 -3.5374
19 1 2.12688 16.7783 2.715 0.0115355 -3.54674
20 1 4.60824 13.5749 -2.7075 0.000351093 -3.53802
21 1 4.25376 15.3677 -0.9 0.00080932 -3.54004
22 1 3.89928 17.1746 0.9075 0.00663464 -3.54438
23 1 6.02616 15.75 -2.7075 0.000376856 -3.5416
24 1 5.67168 17.5504 -0.9 0.00702177 -3.54172
25 1 7.44408 17.9187 -2.7075 0.00708032 -3.54054
26 1 1.06344 3.55843 -2.7075 8.5369e-06 -3.54295
27 1 0.70896 5.32681 -0.9 2.08806e-05 -3.53404
28 1 0.35448 7.09482 0.9075 4.77131e-05 -3.51201
29 1 3.98e-07 8.86205 2.715 0.000110209 -3.53036
30 1 2.48136 5.70539 -2.7075 2.63063e-05 -3.53975
31 1 2.12688 7.47552 -0.9 5.77422e-05 -3.53966
32 1 1.7724 9.24593 0.9075 0.000134556 -3.53949
33 1 1.41792 11.0166 2.715 0.000353918 -3.53887
34 1 3.89928 7.85594 -2.7075 5.64475e-05 -3.53959
35 1 3.5448 9.62959 -0.9 0.000121311 -3.53935
36 1 3.19032 11.4052 0.9075 0.000290139 -3.53887
37 1 2.83584 13.1844 2.715 0.000822258 -3.53776
38 1 5.3172 10.0114 -2.7075 8.6093e-05 -3.53933
39 1 4.96272 11.7907 -0.9 0.000169105 -3.53888
40 1 4.60824 13.5749 0.9075 0.000351093 -3.53802
41 1 4.25376 15.3677 2.715 0.00080932 -3.54004
42 1 6.73512 12.1715 -2.7075 9.31625e-05 -3.53911
43 1 6.38064 13.9575 -0.9 0.000169311 -3.53867
44 1 6.02616 15.75 0.9075 0.000376856 -3.5416
45 1 5.67168 17.5504 2.715 0.00702177 -3.54172
46 1 8.15304 14.3335 -2.7075 0.000101304 -3.53913
47 1 7.79856 16.1238 -0.9 0.000193728 -3.54244
48 1 7.44408 17.9187 0.9075 0.00708032 -3.54054
49 1 9.57096 16.4928 -2.7075 0.000231988 -3.54269
50 1 9.21648 18.2835 -0.9 0.00707045 -3.53958
51 1 0.35448 -2.12252 -2.7075 1.26268e-06 -3.5121
52 1 0 -0.354487 -0.9 7.90833e-29 -3.53019
53 1 1.7724 0.0216358 -2.7075 9.12023e-07 -3.53988
54 1 1.41792 1.78996 -0.9 2.90413e-06 -3.53939
55 1 1.06344 3.55843 0.9075 8.5369e-06 -3.54295
56 1 0.70896 5.32681 2.715 2.08806e-05 -3.53404
57 1 3.19032 2.16624 -2.7075 5.75883e-06 -3.53986
58 1 2.83584 3.9356 -0.9 1.22038e-05 -3.53982
59 1 2.48136 5.70539 0.9075 2.63063e-05 -3.53975
60 1 2.12688 7.47552 2.715 5.77422e-05 -3.53966
61 1 4.60824 4.31236 -2.7075 1.50043e-05 -3.53981
62 1 4.25376 6.08363 -0.9 2.82357e-05 -3.53973
63 1 3.89928 7.85594 0.9075 5.64475e-05 -3.53959
64 1 3.5448 9.62959 2.715 0.000121311 -3.53935
65 1 6.02616 6.46087 -2.7075 2.63818e-05 -3.53973
66 1 5.67168 8.23507 -0.9 4.63332e-05 -3.53958
67 1 5.3172 10.0114 0.9075 8.6093e-05 -3.53933
68 1 4.96272 11.7907 2.715 0.000169105 -3.53888
69 1 7.44408 8.6122 -2.7075 3.46791e-05 -3.53963
70 1 7.0896 10.3902 -0.9 5.56924e-05 -3.53942
71 1 6.73512 12.1715 0.9075 9.31625e-05 -3.53911
72 1 6.38064 13.9575 2.715 0.000169311 -3.53867
73 1 8.862 10.7659 -2.7075 3.74237e-05 -3.53956
74 1 8.50752 12.5478 -0.9 5.83339e-05 -3.53936
75 1 8.15304 14.3335 0.9075 0.000101304 -3.53913
76 1 7.79856 16.1238 2.715 0.000193728 -3.54244
77 1 10.2799 12.9203 -2.7075 4.01663e-05 -3.53958
78 1 9.92544 14.705 -0.9 6.46556e-05 -3.53959
79 1 9.57096 16.4928 0.9075 0.000231988 -3.54269
80 1 9.21648 18.2835 2.715 0.00707045 -3.53958
81 1 11.6978 15.0732 -2.7075 4.21495e-05 -3.54018
82 1 11.3434 16.8588 -0.9 0.000340479 -3.54214
83 1 13.1158 17.2229 -2.7075 0.000548938 -3.54144
84 1 1.06344 -5.65754 -2.7075 1.47088e-05 -3.54295
85 1 0.70896 -3.8903 -0.9 5.55752e-06 -3.5341
86 1 0.35448 -2.12252 0.9075 1.26268e-06 -3.5121
87 1 0 -0.354487 2.715 6.62643e-29 -3.53019
88 1 2.48136 -3.51372 -2.7075 4.41815e-06 -3.53988
89 1 2.12688 -1.74634 -0.9 1.44206e-06 -3.53988
90 1 1.7724 0.0216358 0.9075 9.12023e-07 -3.53988
91 1 1.41792 1.78996 2.715 2.90413e-06 -3.53939
92 1 3.89928 -1.37074 -2.7075 3.17047e-06 -3.5399
93 1 3.5448 0.397412 -0.9 3.23748e-06 -3.53989
94 1 3.19032 2.16624 0.9075 5.75883e-06 -3.53986
95 1 2.83584 3.9356 2.715 1.22038e-05 -3.53982
96 1 5.3172 0.772522 -2.7075 6.01002e-06 -3.5399
97 1 4.96272 2.54199 -0.9 8.69529e-06 -3.53987
98 1 4.60824 4.31236 0.9075 1.50043e-05 -3.53981
99 1 4.25376 6.08363 2.715 2.82357e-05 -3.53973
100 1 6.73512 2.91687 -2.7075 1.07379e-05 -3.53988
101 1 6.38064 4.68822 -0.9 1.60532e-05 -3.53982
102 1 6.02616 6.46087 0.9075 2.63818e-05 -3.53973
103 1 5.67168 8.23507 2.715 4.63332e-05 -3.53958
104 1 8.15304 5.06281 -2.7075 1.54646e-05 -3.53985
105 1 7.79856 6.83658 -0.9 2.25129e-05 -3.53976
106 1 7.44408 8.6122 0.9075 3.46791e-05 -3.53963
107 1 7.0896 10.3902 2.715 5.56924e-05 -3.53942
108 1 9.57096 7.21046 -2.7075 1.83962e-05 -3.53981
109 1 9.21648 8.98697 -0.9 2.56339e-05 -3.5397
110 1 8.862 10.7659 0.9075 3.74237e-05 -3.53956
111 1 8.50752 12.5478 2.715 5.83339e-05 -3.53936
112 1 10.9889 9.35939 -2.7075 1.94012e-05 -3.53979
113 1 10.6344 11.1385 -0.9 2.69036e-05 -3.53969
114 1 10.2799 12.9203 0.9075 4.01663e-05 -3.53958
115 1 9.92544 14.705 2.715 6.46556e-05 -3.53959
116 1 12.4068 11.5086 -2.7075 2.00639e-05 -3.5398
117 1 12.0523 13.2898 -0.9 2.85409e-05 -3.53974
118 1 11.6978 15.0732 0.9075 4.21495e-05 -3.54018
119 1 11.3434 16.8588 2.715 0.000340479 -3.54214
120 1 13.8247 13.6569 -2.7075 2.04336e-05 -3.53986
121 1 13.4702 15.4391 -0.9 2.7969e-05 -3.54071
122 1 13.1158 17.2229 0.9075 0.000548938 -3.54144
123 1 15.2426 15.8033 -2.7075 1.89153e-05 -3.54107
124 1 14.8882 17.5856 -0.9 0.000820446 -3.5409
125 1 16.6606 17.9472 -2.7075 0.00106348 -3.54049
126 1 0.354479 -11.3367 -2.7075 0.000274555 -3.51286
127 1 -3.98e-07 -9.57102 -0.9 0.000110209 -3.53034
128 1 1.7724 -9.18856 -2.7075 7.03126e-05 -3.53979
129 1 1.41792 -7.42383 -0.9 3.30218e-05 -3.53936
130 1 1.06344 -5.65754 0.9075 1.47088e-05 -3.54295
131 1 0.70896 -3.8903 2.715 5.55752e-06 -3.5341
132 1 3.19032 -7.04538 -2.7075 2.18983e-05 -3.53987
133 1 2.83584 -5.28021 -0.9 1.06153e-05 -3.53988
134 1 2.48136 -3.51372 0.9075 4.41815e-06 -3.53988
135 1 2.12688 -1.74634 2.715 1.44206e-06 -3.53988
136 1 4.60824 -4.90418 -2.7075 9.31925e-06 -3.53991
137 1 4.25376 -3.13803 -0.9 5.12742e-06 -3.53991
138 1 3.89928 -1.37074 0.9075 3.17047e-06 -3.5399
139 1 3.5448 0.397412 2.715 3.23748e-06 -3.53989
140 1 6.02616 -2.76345 -2.7075 6.79536e-06 -3.53994
141 1 5.67168 -0.996002 -0.9 5.55024e-06 -3.53993
142 1 5.3172 0.772522 0.9075 6.01002e-06 -3.5399
143 1 4.96272 2.54199 2.715 8.69529e-06 -3.53987
144 1 7.44408 -0.622327 -2.7075 7.63435e-06 -3.53995
145 1 7.0896 1.14669 -0.9 8.27204e-06 -3.53993
146 1 6.73512 2.91687 0.9075 1.07379e-05 -3.53988
147 1 6.38064 4.68822 2.715 1.60532e-05 -3.53982
148 1 8.862 1.51972 -2.7075 9.49774e-06 -3.53995
149 1 8.50752 3.29059 -0.9 1.15003e-05 -3.53991
150 1 8.15304 5.06281 0.9075 1.54646e-05 -3.53985
151 1 7.79856 6.83658 2.715 2.25129e-05 -3.53976
152 1 10.2799 3.66296 -2.7075 1.114e-05 -3.53994
153 1 9.92544 5.43589 -0.9 1.38748e-05 -3.53989
154 1 9.57096 7.21046 0.9075 1.83962e-05 -3.53981
155 1 9.21648 8.98697 2.715 2.56339e-05 -3.5397
156 1 11.6978 5.80735 -2.7075 1.18926e-05 -3.53993
157 1 11.3434 7.58243 -0.9 1.48147e-05 -3.53987
158 1 10.9889 9.35939 0.9075 1.94012e-05 -3.53979
159 1 10.6344 11.1385 2.715 2.69036e-05 -3.53969
160 1 13.1158 7.95255 -2.7075 1.18691e-05 -3.53993
161 1 12.7613 9.72962 -0.9 1.4986e-05 -3.53987
162 1 12.4068 11.5086 0.9075 2.00639e-05 -3.5398
163 1 12.0523 13.2898 2.715 2.85409e-05 -3.53974
164 1 14.5337 10.0979 -2.7075 1.16521e-05 -3.53994
165 1 14.1792 11.8766 -0.9 1.51107e-05 -3.5399
166 1 13.8247 13.6569 0.9075 2.04336e-05 -3.53986
167 1 13.4702 15.4391 2.715 2.7969e-05 -3.54071
168 1 15.9516 12.2427 -2.7075 1.13758e-05 -3.53997
169 1 15.5971 14.0223 -0.9 1.46865e-05 -3.53994
170 1 15.2426 15.8033 0.9075 1.89153e-05 -3.54107
171 1 14.8882 17.5856 2.715 0.000820446 -3.5409
172 1 17.3695 14.3863 -2.7075 1.06132e-05 -3.54
173 1 17.015 16.1663 -0.9 1.30408e-05 -3.54136
174 1 16.6606 17.9472 0.9075 0.00106348 -3.54049
175 1 18.7874 16.5283 -2.7075 3.15896e-05 -3.54144
176 1 18.433 18.3081 -0.9 0.00128133 -3.54009
177 1 1.06344 -14.8546 -2.7075 0.00312373 -3.54336
178 1 0.708959 -13.0992 -0.9 0.000796982 -3.53395
179 1 0.354479 -11.3367 0.9075 0.000274555 -3.51286
180 1 -3.98e-07 -9.57102 2.715 0.000110209 -3.53034
181 1 2.48136 -12.7082 -2.7075 0.000326098 -3.53977
182 1 2.12688 -10.9507 -0.9 0.000149533 -3.53977
183 1 1.7724 -9.18856 0.9075 7.03126e-05 -3.53979
184 1 1.41792 -7.42383 2.715 3.30218e-05 -3.53936
185 1 3.89928 -10.5689 -2.7075 7.8828e-05 -3.53978
186 1 3.5448 -8.80859 -0.9 4.19922e-05 -3.53984
187 1 3.19032 -7.04538 0.9075 2.18983e-05 -3.53987
188 1 2.83584 -5.28021 2.715 1.06153e-05 -3.53988
189 1 5.3172 -8.43144 -2.7075 2.89214e-05 -3.53987
190 1 4.96272 -6.66882 -0.9 1.6595e-05 -3.5399
191 1 4.60824 -4.90418 0.9075 9.31925e-06 -3.53991
192 1 4.25376 -3.13803 2.715 5.12742e-06 -3.53991
193 1 6.73512 -6.29424 -2.7075 1.48867e-05 -3.53993
194 1 6.38064 -4.52962 -0.9 9.74331e-06 -3.53994
195 1 6.02616 -2.76345 0.9075 6.79536e-06 -3.53994
196 1 5.67168 -0.996002 2.715 5.55024e-06 -3.53993
197 1 8.15304 -4.15661 -2.7075 1.04991e-05 -3.53997
198 1 7.79856 -2.39013 -0.9 8.39449e-06 -3.53997
199 1 7.44408 -0.622327 0.9075 7.63435e-06 -3.53995
200 1 7.0896 1.14669 2.715 8.27204e-06 -3.53993
201 1 9.57096 -2.01814 -2.7075 9.29578e-06 -3.54
202 1 9.21648 -0.249854 -0.9 8.85622e-06 -3.53998
203 1 8.862 1.51972 0.9075 9.49774e-06 -3.53995
204 1 8.50752 3.29059 2.715 1.15003e-05 -3.53991
205 1 10.9889 0.121341 -2.7075 9.11285e-06 -3.54001
206 1 10.6344 1.89148 -0.9 9.65597e-06 -3.53998
207 1 10.2799 3.66296 0.9075 1.114e-05 -3.53994
208 1 9.92544 5.43589 2.715 1.38748e-05 -3.53989
209 1 12.4068 2.26189 -2.7075 9.0201e-06 -3.54001
210 1 12.0523 4.03389 -0.9 1.00602e-05 -3.53998
211 1 11.6978 5.80735 0.9075 1.18926e-05 -3.53993
212 1 11.3434 7.58243 2.715 1.48147e-05 -3.53987
213 1 13.8247 4.40338 -2.7075 8.65539e-06 -3.54001
214 1 13.4702 6.17719 -0.9 9.89609e-06 -3.53997
215 1 13.1158 7.95255 0.9075 1.18691e-05 -3.53993
216 1 12.7613 9.72962 2.715 1.4986e-05 -3.53987
217 1 15.2426 6.5455 -2.7075 8.06951e-06 -3.54001
218 1 14.8882 8.32094 -0.9 9.45905e-06 -3.53998
219 1 14.5337 10.0979 0.9075 1.16521e-05 -3.53994
220 1 14.1792 11.8766 2.715 1.51107e-05 -3.5399
221 1 16.6606 8.68781 -2.7075 7.48806e-06 -3.54002
222 1 16.3061 10.4646 -0.9 9.04238e-06 -3.54
223 1 15.9516 12.2427 0.9075 1.13758e-05 -3.53997
224 1 15.5971 14.0223 2.715 1.46865e-05 -3.53994
225 1 18.0785 10.8298 -2.7075 6.98721e-06 -3.54004
226 1 17.724 12.6075 -0.9 8.5503e-06 -3.54002
227 1 17.3695 14.3863 0.9075 1.06132e-05 -3.54
228 1 17.015 16.1663 2.715 1.30408e-05 -3.54136
229 1 19.4964 12.971 -2.7075 6.42737e-06 -3.54006
230 1 19.1419 14.7492 -0.9 7.726e-06 -3.54011
231 1 18.7874 16.5283 0.9075 3.15896e-05 -3.54144
232 1 18.433 18.3081 2.715 0.00128133 -3.54009
233 1 20.9143 15.1111 -2.7075 5.67253e-06 -3.54033
234 1 20.5598 16.8894 -0.9 6.77684e-05 -3.54116
235 1 22.3322 17.2499 -2.7075 0.000130361 -3.54083
236 1 1.7724 -18.2726 -2.7075 0.125654 -3.52089
237 1 1.41792 -16.5897 -0.9 0.0112182 -3.51996
238 1 1.06344 -14.8546 0.9075 0.00312373 -3.54336
239 1 0.708959 -13.0992 2.715 0.000796982 -3.53395
240 1 3.19032 -16.1931 -2.7075 0.00327625 -3.52747
241 1 2.83584 -14.4576 -0.9 0.000780013 -3.53918
242 1 2.48136 -12.7082 0.9075 0.000326098 -3.53977
243 1 2.12688 -10.9507 2.715 0.000149533 -3.53977
244 1 4.60824 -14.0747 -2.7075 0.00036835 -3.53884
245 1 4.25376 -12.3249 -0.9 0.000155781 -3.53956
246 1 3.89928 -10.5689 0.9075 7.8828e-05 -3.53978
247 1 3.5448 -8.80859 2.715 4.19922e-05 -3.53984
248 1 6.02616 -11.9478 -2.7075 9.72118e-05 -3.53958
249 1 5.67168 -10.1914 -0.9 5.12566e-05 -3.53978
250 1 5.3172 -8.43144 0.9075 2.89214e-05 -3.53987
251 1 4.96272 -6.66882 2.715 1.6595e-05 -3.5399
252 1 7.44408 -9.81735 -2.7075 3.86918e-05 -3.53982
253 1 7.0896 -8.05696 -0.9 2.35389e-05 -3.5399
254 1 6.73512 -6.29424 0.9075 1.48867e-05 -3.53993
255 1 6.38064 -4.52962 2.715 9.74331e-06 -3.53994
256 1 8.862 -7.6848 -2.7075 2.04275e-05 -3.53994
257 1 8.50752 -5.92157 -0.9 1.42499e-05 -3.53997
258 1 8.15304 -4.15661 0.9075 1.04991e-05 -3.53997
259 1 7.79856 -2.39013 2.715 8.39449e-06 -3.53997
260 1 10.2799 -5.55062 -2.7075 1.34327e-05 -3.54
261 1 9.92544 -3.7851 -0.9 1.07673e-05 -3.54
262 1 9.57096 -2.01814 0.9075 9.29578e-06 -3.54
263 1 9.21648 -0.249854 2.715 8.85622e-06 -3.53998
264 1 11.6978 -3.41501 -2.7075 1.03495e-05 -3.54003
265 1 11.3434 -1.64749 -0.9 9.35531e-06 -3.54003
266 1 10.9889 0.121341 0.9075 9.11285e-06 -3.54001
267 1 10.6344 1.89148 2.715 9.65597e-06 -3.53998
268 1 13.1158 -1.27814 -2.7075 8.74055e-06 -3.54005
269 1 12.7613 0.491238 -0.9 8.60794e-06 -3.54004
270 1 12.4068 2.26189 0.9075 9.0201e-06 -3.54001
271 1 12.0523 4.03389 2.715 1.00602e-05 -3.53998
272 1 14.5337 0.859858 -2.7075 7.64822e-06 -3.54006
273 1 14.1792 2.63097 -0.9 7.94119e-06 -3.54004
274 1 13.8247 4.40338 0.9075 8.65539e-06 -3.54001
275 1 13.4702 6.17719 2.715 9.89609e-06 -3.53997
276 1 15.9516 2.99875 -2.7075 6.70954e-06 -3.54007
277 1 15.5971 4.77147 -0.9 7.20388e-06 -3.54004
278 1 15.2426 6.5455 0.9075 8.06951e-06 -3.54001
279 1 14.8882 8.32094 2.715 9.45905e-06 -3.53998
280 1 17.3695 5.13826 -2.7075 5.86272e-06 -3.54007
281 1 17.015 6.9124 -0.9 6.48529e-06 -3.54005
282 1 16.6606 8.68781 0.9075 7.48806e-06 -3.54002
283 1 16.3061 10.4646 2.715 9.04238e-06 -3.54
284 1 18.7874 7.27802 -2.7075 5.15832e-06 -3.54008
285 1 18.433 9.05332 -0.9 5.88879e-06 -3.54006
286 1 18.0785 10.8298 0.9075 6.98721e-06 -3.54004
287 1 17.724 12.6075 2.715 8.5503e-06 -3.54002
288 1 20.2054 9.41766 -2.7075 4.60739e-06 -3.54009
289 1 19.8509 11.1938 -0.9 5.38107e-06 -3.54008
290 1 19.4964 12.971 0.9075 6.42737e-06 -3.54006
291 1 19.1419 14.7492 2.715 7.726e-06 -3.54011
292 1 21.6233 11.5568 -2.7075 4.13848e-06 -3.5401
293 1 21.2688 13.3336 -0.9 4.84236e-06 -3.54009
294 1 20.9143 15.1111 0.9075 5.67253e-06 -3.54033
295 1 20.5598 16.8894 2.715 6.77684e-05 -3.54116
296 1 23.0412 13.6953 -2.7075 3.66277e-06 -3.54012
297 1 22.6867 15.4723 -0.9 4.20322e-06 -3.54056
298 1 22.3322 17.2499 0.9075 0.000130361 -3.54083
299 1 24.4591 15.8328 -2.7075 3.14376e-06 -3.54072
300 1 24.1046 17.6099 -0.9 0.000211341 -3.54057
301 1 25.877 17.9694 -2.7075 0.000291061 -3.54037
302 1 1.7724 -18.2726 0.9075 0.125654 -3.52089
303 1 1.41792 -16.5897 2.715 0.0112182 -3.51996
304 1 3.5448 -17.9126 -0.9 0.019685 -3.53193
305 1 3.19032 -16.1931 0.9075 0.00327625 -3.52747
306 1 2.83584 -14.4576 2.715 0.000780013 -3.53918
307 1 5.3172 -17.5525 -2.7075 0.00388214 -3.53517
308 1 4.96272 -15.8167 -0.9 0.000898651 -3.53484
309 1 4.60824 -14.0747 0.9075 0.00036835 -3.53884
310 1 4.25376 -12.3249 2.715 0.000155781 -3.53956
311 1 6.73512 -15.4476 -2.7075 0.000344292 -3.53767
312 1 6.38064 -13.6999 -0.9 0.000194765 -3.53919
313 1 6.02616 -11.9478 0.9075 9.72118e-05 -3.53958
314 1 5.67168 -10.1914 2.715 5.12566e-05 -3.53978
315 1 8.15304 -13.3298 -2.7075 0.000110041 -3.53948
316 1 7.79856 -11.575 -0.9 6.59145e-05 -3.53969
317 1 7.44408 -9.81735 0.9075 3.86918e-05 -3.53982
318 1 7.0896 -8.05696 2.715 2.35389e-05 -3.5399
319 1 9.57096 -11.2053 -2.7075 4.58838e-05 -3.5398
320 1 9.21648 -9.44609 -0.9 3.04361e-05 -3.53988
321 1 8.862 -7.6848 0.9075 2.04275e-05 -3.53994
322 1 8.50752 -5.92157 2.715 1.42499e-05 -3.53997
323 1 10.9889 -9.07696 -2.7075 2.3974e-05 -3.53994
324 1 10.6344 -7.3146 -0.9 1.76684e-05 -3.53998
325 1 10.2799 -5.55062 0.9075 1.34327e-05 -3.54
326 1 9.92544 -3.7851 2.715 1.07673e-05 -3.54
327 1 12.4068 -6.94603 -2.7075 1.49391e-05 -3.54002
328 1 12.0523 -5.1812 -0.9 1.21647e-05 -3.54003
329 1 11.6978 -3.41501 0.9075 1.03495e-05 -3.54003
330 1 11.3434 -1.64749 2.715 9.35531e-06 -3.54003
331 1 13.8247 -4.81315 -2.7075 1.05871e-05 -3.54006
332 1 13.4702 -3.04626 -0.9 9.39433e-06 -3.54006
333 1 13.1158 -1.27814 0.9075 8.74055e-06 -3.54005
334 1 12.7613 0.491238 2.715 8.60794e-06 -3.54004
335 1 15.2426 -2.67874 -2.7075 8.15053e-06 -3.54008
336 1 14.8882 -0.910027 -0.9 7.7248e-06 -3.54008
337 1 14.5337 0.859858 0.9075 7.64822e-06 -3.54006
338 1 14.1792 2.63097 2.715 7.94119e-06 -3.54004
339 1 16.6606 -0.543091 -2.7075 6.5558e-06 -3.5401
340 1 16.3061 1.22726 -0.9 6.50692e-06 -3.54009
341 1 15.9516 2.99875 0.9075 6.70954e-06 -3.54007
342 1 15.5971 4.77147 2.715 7.20388e-06 -3.54004
343 1 18.0785 1.59351 -2.7075 5.37135e-06 -3.54011
344 1 17.724 3.36532 -0.9 5.51218e-06 -3.54009
345 1 17.3695 5.13826 0.9075 5.86272e-06 -3.54007
346 1 17.015 6.9124 2.715 6.48529e-06 -3.54005
347 1 19.4964 3.73076 -2.7075 4.44526e-06 -3.54011
348 1 19.1419 5.50385 -0.9 4.70085e-06 -3.5401
349 1 18.7874 7.27802 0.9075 5.15832e-06 -3.54008
350 1 18.433 9.05332 2.715 5.88879e-06 -3.54006
351 1 20.9143 5.86836 -2.7075 3.73393e-06 -3.54012
352 1 20.5598 7.64251 -0.9 4.07418e-06 -3.5401
353 1 20.2054 9.41766 0.9075 4.60739e-06 -3.54009
354 1 19.8509 11.1938 2.715 5.38107e-06 -3.54008
355 1 22.3322 8.006 -2.7075 3.20446e-06 -3.54012
356 1 21.9778 9.78097 -0.9 3.59373e-06 -3.54011
357 1 21.6233 11.5568 0.9075 4.13848e-06 -3.5401
358 1 21.2688 13.3336 2.715 4.84236e-06 -3.54009
359 1 23.7502 10.1434 -2.7075 2.80022e-06 -3.54013
360 1 23.3957 11.919 -0.9 3.18491e-06 -3.54013
361 1 23.0412 13.6953 0.9075 3.66277e-06 -3.54012
362 1 22.6867 15.4723 2.715 4.20322e-06 -3.54056
363 1 25.1681 12.2803 -2.7075 2.4568e-06 -3.54014
364 1 24.8136 14.0563 -0.9 2.78502e-06 -3.54014
365 1 24.4591 15.8328 0.9075 3.14376e-06 -3.54072
366 1 24.1046 17.6099 2.715 0.000211341 -3.54057
367 1 26.586 14.4167 -2.7075 2.13041e-06 -3.54015
368 1 26.2315 16.1928 -0.9 2.37327e-06 -3.54087
369 1 25.877 17.9694 0.9075 0.000291061 -3.54037
370 1 28.0039 16.5523 -2.7075 8.1641e-06 -3.5409
371 1 27.6494 18.3284 -0.9 0.000370352 -3.54017
372 1 3.5448 -17.9126 2.715 0.019685 -3.53193
373 1 5.3172 -17.5525 0.9075 0.00388214 -3.53517
374 1 4.96272 -15.8167 2.715 0.000898651 -3.53484
375 1 7.0896 -17.1924 -0.9 0.000569011 -3.53563
376 1 6.73512 -15.4476 0.9075 0.000344292 -3.53767
377 1 6.38064 -13.6999 2.715 0.000194765 -3.53919
378 1 8.862 -16.8323 -2.7075 9.19518e-05 -3.53604
379 1 8.50752 -15.0818 -0.9 0.000160538 -3.53908
380 1 8.15304 -13.3298 0.9075 0.000110041 -3.53948
381 1 7.79856 -11.575 2.715 6.59145e-05 -3.53969
382 1 10.2799 -14.7178 -2.7075 8.56476e-05 -3.53961
383 1 9.92544 -12.9624 -0.9 6.63492e-05 -3.53969
384 1 9.57096 -11.2053 0.9075 4.58838e-05 -3.5398
385 1 9.21648 -9.44609 2.715 3.04361e-05 -3.53988
386 1 11.6978 -12.5969 -2.7075 4.23473e-05 -3.53983
387 1 11.3434 -10.8377 -0.9 3.25447e-05 -3.53989
388 1 10.9889 -9.07696 0.9075 2.3974e-05 -3.53994
389 1 10.6344 -7.3146 2.715 1.76684e-05 -3.53998
390 1 13.1158 -10.4716 -2.7075 2.34888e-05 -3.53996
391 1 12.7613 -8.70949 -0.9 1.87729e-05 -3.54
392 1 12.4068 -6.94603 0.9075 1.49391e-05 -3.54002
393 1 12.0523 -5.1812 2.715 1.21647e-05 -3.54003
394 1 14.5337 -8.34335 -2.7075 1.46242e-05 -3.54004
395 1 14.1792 -6.57884 -0.9 1.23436e-05 -3.54005
396 1 13.8247 -4.81315 0.9075 1.05871e-05 -3.54006
397 1 13.4702 -3.04626 2.715 9.39433e-06 -3.54006
398 1 15.9516 -6.21282 -2.7075 1.00093e-05 -3.54008
399 1 15.5971 -4.44632 -0.9 8.91844e-06 -3.54009
400 1 15.2426 -2.67874 0.9075 8.15053e-06 -3.54008
401 1 14.8882 -0.910027 2.715 7.7248e-06 -3.54008
402 1 17.3695 -4.08058 -2.7075 7.32774e-06 -3.54011
403 1 17.015 -2.31235 -0.9 6.8352e-06 -3.54011
404 1 16.6606 -0.543091 0.9075 6.5558e-06 -3.5401
405 1 16.3061 1.22726 2.715 6.50692e-06 -3.54009
406 1 18.7874 -1.94699 -2.7075 5.59236e-06 -3.54012
407 1 18.433 -0.177244 -0.9 5.40536e-06 -3.54012
408 1 18.0785 1.59351 0.9075 5.37135e-06 -3.54011
409 1 17.724 3.36532 2.715 5.51218e-06 -3.54009
410 1 20.2054 0.187601 -2.7075 4.36897e-06 -3.54013
411 1 19.8509 1.9587 -0.9 4.34461e-06 -3.54012
412 1 19.4964 3.73076 0.9075 4.44526e-06 -3.54011
413 1 19.1419 5.50385 2.715 4.70085e-06 -3.5401
414 1 21.6233 2.32291 -2.7075 3.46845e-06 -3.54014
415 1 21.2688 4.09518 -0.9 3.54316e-06 -3.54013
416 1 20.9143 5.86836 0.9075 3.73393e-06 -3.54012
417 1 20.5598 7.64251 2.715 4.07418e-06 -3.5401
418 1 23.0412 4.45867 -2.7075 2.8051e-06 -3.54014
419 1 22.6867 6.2319 -0.9 2.94986e-06 -3.54013
420 1 22.3322 8.006 0.9075 3.20446e-06 -3.54012
421 1 21.9778 9.78097 2.715 3.59373e-06 -3.54011
422 1 24.4591 6.59459 -2.7075 2.32468e-06 -3.54015
423 1 24.1046 8.36861 -0.9 2.5158e-06 -3.54014
424 1 23.7502 10.1434 0.9075 2.80022e-06 -3.54013
425 1 23.3957 11.919 2.715 3.18491e-06 -3.54013
426 1 25.877 8.73045 -2.7075 1.97528e-06 -3.54015
427 1 25.5226 10.5051 -0.9 2.18358e-06 -3.54015
428 1 25.1681 12.2803 0.9075 2.4568e-06 -3.54014
429 1 24.8136 14.0563 2.715 2.78502e-06 -3.54014
430 1 27.295 10.866 -2.7075 1.70649e-06 -3.54016
431 1 26.9405 12.6411 -0.9 1.90201e-06 -3.54016
432 1 26.586 14.4167 0.9075 2.13041e-06 -3.54015
433 1 26.2315 16.1928 2.715 2.37327e-06 -3.54087
434 1 28.7129 13.0012 -2.7075 1.47919e-06 -3.54017
435 1 28.3584 14.7765 -0.9 1.64031e-06 -3.5402
436 1 28.0039 16.5523 0.9075 8.1641e-06 -3.5409
437 1 27.6494 18.3284 2.715 0.000370352 -3.54017
438 1 30.1308 15.1359 -2.7075 1.27151e-06 -3.54032
439 1 29.7763 16.9114 -0.9 2.02532e-05 -3.54074
440 1 31.5487 17.2701 -2.7075 4.20165e-05 -3.54056
441 1 7.0896 -17.1924 2.715 0.000569011 -3.53563
442 1 8.862 -16.8323 0.9075 9.19518e-05 -3.53604
443 1 8.50752 -15.0818 2.715 0.000160538 -3.53908
444 1 10.9889 -18.2265 -2.7075 0.00292999 -3.53932
445 1 10.6344 -16.4722 -0.9 9.58337e-05 -3.53717
446 1 10.2799 -14.7178 0.9075 8.56476e-05 -3.53961
447 1 9.92544 -12.9624 2.715 6.63492e-05 -3.53969
448 1 12.4068 -16.1121 -2.7075 5.26704e-05 -3.53836
449 1 12.0523 -14.3549 -0.9 5.03613e-05 -3.53978
450 1 11.6978 -12.5969 0.9075 4.23473e-05 -3.53983
451 1 11.3434 -10.8377 2.715 3.25447e-05 -3.53989
452 1 13.8247 -13.9927 -2.7075 3.18113e-05 -3.5399
453 1 13.4702 -12.2326 -0.9 2.83147e-05 -3.53993
454 1 13.1158 -10.4716 0.9075 2.34888e-05 -3.53996
455 1 12.7613 -8.70949 2.715 1.87729e-05 -3.54
456 1 15.2426 -11.8693 -2.7075 1.96381e-05 -3.54
457 1 14.8882 -10.1068 -0.9 1.72158e-05 -3.54002
458 1 14.5337 -8.34335 0.9075 1.46242e-05 -3.54004
459 1 14.1792 -6.57884 2.715 1.23436e-05 -3.54005
460 1 16.6606 -9.74286 -2.7075 1.27805e-05 -3.54006
461 1 16.3061 -7.9783 -0.9 1.13524e-05 -3.54007
462 1 15.9516 -6.21282 0.9075 1.00093e-05 -3.54008
463 1 15.5971 -4.44632 2.715 8.91844e-06 -3.54009
464 1 18.0785 -7.61419 -2.7075 8.79363e-06 -3.5401
465 1 17.724 -5.84783 -0.9 8.00226e-06 -3.54011
466 1 17.3695 -4.08058 0.9075 7.32774e-06 -3.54011
467 1 17.015 -2.31235 2.715 6.8352e-06 -3.54011
468 1 19.4964 -5.48374 -2.7075 6.33259e-06 -3.54013
469 1 19.1419 -3.7158 -0.9 5.91168e-06 -3.54013
470 1 18.7874 -1.94699 0.9075 5.59236e-06 -3.54012
471 1 18.433 -0.177244 2.715 5.40536e-06 -3.54012
472 1 20.9143 -3.35191 -2.7075 4.7084e-06 -3.54014
473 1 20.5598 -1.58258 -0.9 4.49704e-06 -3.54014
474 1 20.2054 0.187601 0.9075 4.36897e-06 -3.54013
475 1 19.8509 1.9587 2.715 4.34461e-06 -3.54012
476 1 22.3322 -1.21902 -2.7075 3.57489e-06 -3.54015
477 1 21.9778 0.551533 -0.9 3.48543e-06 -3.54015
478 1 21.6233 2.32291 0.9075 3.46845e-06 -3.54014
479 1 21.2688 4.09518 2.715 3.54316e-06 -3.54013
480 1 23.7502 0.914635 -2.7075 2.75867e-06 -3.54016
481 1 23.3957 2.68625 -0.9 2.74764e-06 -3.54015
482 1 23.0412 4.45867 0.9075 2.8051e-06 -3.54014
483 1 22.6867 6.2319 2.715 2.94986e-06 -3.54013
484 1 25.1681 3.0488 -2.7075 2.16828e-06 -3.54016
485 1 24.8136 4.82133 -0.9 2.21369e-06 -3.54016
486 1 24.4591 6.59459 0.9075 2.32468e-06 -3.54015
487 1 24.1046 8.36861 2.715 2.5158e-06 -3.54014
488 1 26.586 5.18325 -2.7075 1.74584e-06 -3.54017
489 1 26.2315 6.95651 -0.9 1.83148e-06 -3.54016
490 1 25.877 8.73045 0.9075 1.97528e-06 -3.54015
491 1 25.5226 10.5051 2.715 2.18358e-06 -3.54015
492 1 28.0039 7.31776 -2.7075 1.44486e-06 -3.54017
493 1 27.6494 9.09161 -0.9 1.55333e-06 -3.54016
494 1 27.295 10.866 0.9075 1.70649e-06 -3.54016
495 1 26.9405 12.6411 2.715 1.90201e-06 -3.54016
496 1 29.4218 9.45217 -2.7075 1.22483e-06 -3.54017
497 1 29.0674 11.2265 -0.9 1.33802e-06 -3.54017
498 1 28.7129 13.0012 0.9075 1.47919e-06 -3.54017
499 1 28.3584 14.7765 2.715 1.64031e-06 -3.5402
500 1 30.8398 11.5863 -2.7075 1.05341e-06 -3.54018
501 1 30.4853 13.3609 -0.9 1.15629e-06 -3.54018
502 1 30.1308 15.1359 0.9075 1.27151e-06 -3.54032
503 1 29.7763 16.9114 2.715 2.02532e-05 -3.54074
504 1 32.2577 13.7202 -2.7075 9.08905e-07 -3.54018
505 1 31.9032 15.4949 -0.9 9.92397e-07 -3.54044
506 1 31.5487 17.2701 0.9075 4.20165e-05 -3.54056
507 1 33.6756 15.8536 -2.7075 7.79847e-07 -3.54053
508 1 33.3211 17.6285 -0.9 7.04869e-05 -3.54042
509 1 35.0935 17.9866 -2.7075 9.98241e-05 -3.54031
510 1 10.9889 -18.2265 0.9075 0.00292999 -3.53932
511 1 10.6344 -16.4722 2.715 9.58337e-05 -3.53717
512 1 12.7613 -17.8693 -0.9 0.00116523 -3.53916
513 1 12.4068 -16.1121 0.9075 5.26704e-05 -3.53836
514 1 12.0523 -14.3549 2.715 5.03613e-05 -3.53978
515 1 14.5337 -17.5116 -2.7075 0.000381025 -3.53893
516 1 14.1792 -15.7522 -0.9 3.24569e-05 -3.53909
517 1 13.8247 -13.9927 0.9075 3.18113e-05 -3.5399
518 1 13.4702 -12.2326 2.715 2.83147e-05 -3.53993
519 1 15.9516 -15.3923 -2.7075 2.12401e-05 -3.53963
520 1 15.5971 -13.631 -0.9 2.11926e-05 -3.53998
521 1 15.2426 -11.8693 0.9075 1.96381e-05 -3.54
522 1 14.8882 -10.1068 2.715 1.72158e-05 -3.54002
523 1 17.3695 -13.2698 -2.7075 1.46922e-05 -3.54004
524 1 17.015 -11.5066 -0.9 1.40106e-05 -3.54005
525 1 16.6606 -9.74286 0.9075 1.27805e-05 -3.54006
526 1 16.3061 -7.9783 2.715 1.13524e-05 -3.54007
527 1 18.7874 -11.1446 -2.7075 1.02143e-05 -3.54009
528 1 18.433 -9.37975 -0.9 9.58607e-06 -3.54009
529 1 18.0785 -7.61419 0.9075 8.79363e-06 -3.5401
530 1 17.724 -5.84783 2.715 8.00226e-06 -3.54011
531 1 20.2054 -9.01731 -2.7075 7.24943e-06 -3.54012
532 1 19.8509 -7.25087 -0.9 6.80409e-06 -3.54012
533 1 19.4964 -5.48374 0.9075 6.33259e-06 -3.54013
534 1 19.1419 -3.7158 2.715 5.91168e-06 -3.54013
535 1 21.6233 -6.88827 -2.7075 5.26356e-06 -3.54014
536 1 21.2688 -5.12045 -0.9 4.97649e-06 -3.54014
537 1 20.9143 -3.35191 0.9075 4.7084e-06 -3.54014
538 1 20.5598 -1.58258 2.715 4.49704e-06 -3.54014
539 1 23.0412 -4.75787 -2.7075 3.89397e-06 -3.54015
540 1 22.6867 -2.9888 -0.9 3.71832e-06 -3.54015
541 1 22.3322 -1.21902 0.9075 3.57489e-06 -3.54015
542 1 21.9778 0.551533 2.715 3.48543e-06 -3.54015
543 1 24.4591 -2.62641 -2.7075 2.92167e-06 -3.54016
544 1 24.1046 -0.856236 -0.9 2.82194e-06 -3.54016
545 1 23.7502 0.914635 0.9075 2.75867e-06 -3.54016
546 1 23.3957 2.68625 2.715 2.74764e-06 -3.54015
547 1 25.877 -0.494151 -2.7075 2.21962e-06 -3.54017
548 1 25.5226 1.27699 -0.9 2.17461e-06 -3.54017
549 1 25.1681 3.0488 0.9075 2.16828e-06 -3.54016
550 1 24.8136 4.82133 2.715 2.21369e-06 -3.54016
551 1 27.295 1.63867 -2.7075 1.71214e-06 -3.54017
552 1 26.9405 3.41064 -0.9 1.70934e-06 -3.54017
553 1 26.586 5.18325 0.9075 1.74584e-06 -3.54017
554 1 26.2315 6.95651 2.715 1.83148e-06 -3.54016
555 1 28.7129 3.77184 -2.7075 1.34889e-06 -3.54018
556 1 28.3584 5.54451 -0.9 1.3785e-06 -3.54017
557 1 28.0039 7.31776 0.9075 1.44486e-06 -3.54017
558 1 27.6494 9.09161 2.715 1.55333e-06 -3.54016
559 1 30.1308 5.90518 -2.7075 1.09117e-06 -3.54018
560 1 29.7763 7.67841 -0.9 1.14274e-06 -3.54018
561 1 29.4218 9.45217 0.9075 1.22483e-06 -3.54017
562 1 29.0674 11.2265 2.715 1.33802e-06 -3.54017
563 1 31.5487 8.03853 -2.7075 9.06861e-07 -3.54018
564 1 31.1942 9.8122 -0.9 9.69229e-07 -3.54018
565 1 30.8398 11.5863 0.9075 1.05341e-06 -3.54018
566 1 30.4853 13.3609 2.715 1.15629e-06 -3.54018
567 1 32.9666 10.1718 -2.7075 7.70157e-07 -3.54019
568 1 32.6122 11.9458 -0.9 8.33182e-07 -3.54018
569 1 32.2577 13.7202 0.9075 9.08905e-07 -3.54018
570 1 31.9032 15.4949 2.715 9.92397e-07 -3.54044
571 1 34.3846 12.3048 -2.7075 6.62295e-07 -3.54019
572 1 34.0301 14.079 -0.9 7.1857e-07 -3.54019
573 1 33.6756 15.8536 0.9075 7.79847e-07 -3.54053
574 1 33.3211 17.6285 2.715 7.04869e-05 -3.54042
575 1 35.8025 14.4376 -2.7075 5.71429e-07 -3.54019
576 1 35.448 16.2119 -0.9 6.16947e-07 -3.54062
577 1 35.0935 17.9866 0.9075 9.98241e-05 -3.54031
578 1 37.2204 16.57 -2.7075 2.78327e-06 -3.54063
579 1 36.8659 18.3444 -0.9 0.000130986 -3.54019
580 1 12.7613 -17.8693 2.715 0.00116523 -3.53916
581 1 14.5337 -17.5116 0.9075 0.000381025 -3.53893
582 1 14.1792 -15.7522 2.715 3.24569e-05 -3.53909
583 1 16.3061 -17.1535 -0.9 7.46997e-05 -3.53872
584 1 15.9516 -15.3923 0.9075 2.12401e-05 -3.53963
585 1 15.5971 -13.631 2.715 2.11926e-05 -3.53998
586 1 18.0785 -16.7953 -2.7075 8.21551e-06 -3.53869
587 1 17.724 -15.0326 -0.9 1.45379e-05 -3.53998
588 1 17.3695 -13.2698 0.9075 1.46922e-05 -3.54004
589 1 17.015 -11.5066 2.715 1.40106e-05 -3.54005
590 1 19.4964 -14.673 -2.7075 1.02937e-05 -3.54009
591 1 19.1419 -12.909 -0.9 1.0496e-05 -3.54008
592 1 18.7874 -11.1446 0.9075 1.02143e-05 -3.54009
593 1 18.433 -9.37975 2.715 9.58607e-06 -3.54009
594 1 20.9143 -12.5485 -2.7075 7.67117e-06 -3.54011
595 1 20.5598 -10.7832 -0.9 7.57127e-06 -3.54012
596 1 20.2054 -9.01731 0.9075 7.24943e-06 -3.54012
597 1 19.8509 -7.25087 2.715 6.80409e-06 -3.54012
598 1 22.3322 -10.4221 -2.7075 5.68506e-06 -3.54014
599 1 21.9778 -8.65547 -0.9 5.51923e-06 -3.54014
600 1 21.6233 -6.88827 0.9075 5.26356e-06 -3.54014
601 1 21.2688 -5.12045 2.715 4.97649e-06 -3.54014
602 1 23.7502 -8.29415 -2.7075 4.2259e-06 -3.54015