#LAMMPS data file
2504 atoms
2 atom types
-55.4988719000 55.4988719000 xlo xhi
-18.4329573000 18.4329573000 ylo yhi
-3.6150000000 3.6150000000 zlo zhi
0.0 0.0 0.0 xy xz yz

Atoms # atomic

1 1 0.6392934019 16.7056702168 3.6149968053
2 1 0.2837667275 -18.3528722585 -1.8075026936
3 1 1.0281344915 13.0046322034 3.6149971515
4 1 0.8982273222 14.7498556959 -1.8075029558
5 1 0.6392934019 16.7056702168 -0.0000031947
6 1 0.2837667275 -18.3528722585 1.8074973064
7 1 2.6156204941 15.1570660172 3.6149973044
8 1 2.3002186230 16.9818820942 -1.8075027510
9 1 3.9964993600 17.3595947479 3.6149974768
10 1 0.6392934012 7.4891915647 3.6149968054
11 1 0.2837667240 9.2965636932 -1.8075026936
12 1 1.9004719532 9.6616977100 3.6149973592
13 1 1.3990955900 11.4102545583 -1.8075027066
14 1 1.0281344915 13.0046322034 -0.0000028485
15 1 0.8982273222 14.7498556959 1.8074970442
16 1 3.2759967737 11.7198034114 3.6149975365
17 1 2.9611000155 13.4133497837 -1.8075025125
18 1 2.6156204941 15.1570660172 -0.0000026956
19 1 2.3002186230 16.9818820942 1.8074972490
20 1 4.7469326874 13.7969466638 3.6149976629
21 1 4.3794315774 15.5602422388 -1.8075024269
22 1 3.9964993600 17.3595947479 -0.0000025232
23 1 6.1339976835 15.9419070536 3.6149977329
24 1 5.7577719056 17.7180391474 -1.8075022869
25 1 7.5418099681 18.0679242123 3.6149979086
26 1 1.0281344923 3.7881535510 3.6149971515
27 1 0.8982273179 5.5333770496 -1.8075029558
28 1 0.6392934012 7.4891915647 -0.0000031946
29 1 0.2837667240 9.2965636932 1.8074973064
30 1 2.6156204946 5.9405873689 3.6149973044
31 1 2.3002186248 7.7654034430 -1.8075027510
32 1 1.9004719532 9.6616977100 -0.0000026408
33 1 1.3990955900 11.4102545583 1.8074972934
34 1 3.9964993593 8.1431160973 3.6149974768
35 1 3.6229784331 9.9521410888 -1.8075024632
36 1 3.2759967737 11.7198034114 -0.0000024635
37 1 2.9611000155 13.4133497837 1.8074974875
38 1 5.4066622743 10.2723682831 3.6149977215
39 1 5.0850304093 12.0344015704 -1.8075022714
40 1 4.7469326874 13.7969466638 -0.0000023371
41 1 4.3794315774 15.5602422388 1.8074975731
42 1 6.8585163794 12.3832316809 3.6149979073
43 1 6.5065652724 14.1608955901 -1.8075021653
44 1 6.1339976835 15.9419070536 -0.0000022671
45 1 5.7577719056 17.7180391474 1.8074977131
46 1 8.2646968863 14.5209318859 3.6149979783
47 1 7.9004089113 16.2987737307 -1.8075020848
48 1 7.5418099681 18.0679242123 -0.0000020914
49 1 9.6753296284 16.6489880235 3.6149981510
50 1 9.3245636586 18.4174536515 -1.8075018930
51 1 0.6392934025 -1.7272870822 3.6149968054
52 1 0.2837667290 0.0800850404 -1.8075026936
53 1 1.9004719500 0.4452190566 3.6149973592
54 1 1.3990955898 2.1937759103 -1.8075027067
55 1 1.0281344923 3.7881535510 -0.0000028485
56 1 0.8982273179 5.5333770496 1.8074970442
57 1 3.2759967746 2.5033247648 3.6149975365
58 1 2.9611000182 4.1968711304 -1.8075025125
59 1 2.6156204946 5.9405873689 -0.0000026956
60 1 2.3002186248 7.7654034430 1.8074972490
61 1 4.7469326865 4.5804680123 3.6149976629
62 1 4.3794315764 6.3437635898 -1.8075024269
63 1 3.9964993593 8.1431160973 -0.0000025232
64 1 3.6229784331 9.9521410888 1.8074975368
65 1 6.1339976840 6.7254284042 3.6149977329
66 1 5.7577719060 8.5015604971 -1.8075022869
67 1 5.4066622743 10.2723682831 -0.0000022785
68 1 5.0850304093 12.0344015704 1.8074977286
69 1 7.5418099678 8.8514455620 3.6149979086
70 1 7.1977818741 10.6141509413 -1.8075020851
71 1 6.8585163794 12.3832316809 -0.0000020927
72 1 6.5065652724 14.1608955901 1.8074978347
73 1 8.9762679949 10.9687962065 3.6149980960
74 1 8.6242795829 12.7417772124 -1.8075019300
75 1 8.2646968863 14.5209318859 -0.0000020217
76 1 7.9004089113 16.2987737307 1.8074979152
77 1 10.3905547987 13.1005317829 3.6149982325
78 1 10.0316421138 14.8760176768 -1.8075017858
79 1 9.6753296284 16.6489880235 -0.0000018490
80 1 9.3245636586 18.4174536515 1.8074981070
81 1 11.8044653693 15.2290600713 3.6149984425
82 1 11.4515751578 17.0001189754 -1.8075015631
83 1 13.2257675916 17.3535893659 3.6149987026
84 1 1.0281344913 -5.4283250963 3.6149971515
85 1 0.8982273230 -3.6831016048 -1.8075029558
86 1 0.6392934025 -1.7272870822 -0.0000031946
87 1 0.2837667290 0.0800850404 1.8074973064
88 1 2.6156204940 -3.2758912832 3.6149973044
89 1 2.3002186221 -1.4510752053 -1.8075027510
90 1 1.9004719500 0.4452190566 -0.0000026408
91 1 1.3990955898 2.1937759103 1.8074972933
92 1 3.9964993604 -1.0733625517 3.6149974768
93 1 3.6229784345 0.7356624379 -1.8075024632
94 1 3.2759967746 2.5033247648 -0.0000024635
95 1 2.9611000182 4.1968711304 1.8074974875
96 1 5.4066622739 1.0558896320 3.6149977215
97 1 5.0850304077 2.8179229215 -1.8075022714
98 1 4.7469326865 4.5804680123 -0.0000023371
99 1 4.3794315764 6.3437635898 1.8074975731
100 1 6.8585163799 3.1667530314 3.6149979073
101 1 6.5065652731 4.9444169397 -1.8075021653
102 1 6.1339976840 6.7254284042 -0.0000022671
103 1 5.7577719060 8.5015604971 1.8074977131
104 1 8.2646968860 5.3044532356 3.6149979783
105 1 7.9004089109 7.0822950808 -1.8075020849
106 1 7.5418099678 8.8514455620 -0.0000020914
107 1 7.1977818741 10.6141509413 1.8074979149
108 1 9.6753296285 7.4325093737 3.6149981510
109 1 9.3245636587 9.2009750014 -1.8075018930
110 1 8.9762679949 10.9687962065 -0.0000019040
111 1 8.6242795829 12.7417772124 1.8074980700
112 1 11.1004686782 9.5541402668 3.6149983386
113 1 10.7474967624 11.3260659304 -1.8075016993
114 1 10.3905547987 13.1005317829 -0.0000017675
115 1 10.0316421138 14.8760176768 1.8074982142
116 1 12.5171903712 11.6826017227 3.6149985455
117 1 12.1603594938 13.4563394047 -1.8075015224
118 1 11.8044653693 15.2290600713 -0.0000015575
119 1 11.4515751578 17.0001189754 1.8074984369
120 1 13.9326983738 13.8104365727 3.6149987710
121 1 13.5786344540 15.5822002826 -1.8075012535
122 1 13.2257675916 17.3535893659 -0.0000012974
123 1 15.3520180370 15.9361509252 3.6149990992
124 1 14.9982086907 17.7082758697 -1.8075009882
125 1 16.7700449048 18.0631618938 3.6149994333
126 1 0.6392934018 -10.9437657336 3.6149968054
127 1 0.2837667269 -9.1363936082 -1.8075026936
128 1 1.9004719517 -8.7712595913 3.6149973592
129 1 1.3990955899 -7.0227027420 -1.8075027067
130 1 1.0281344913 -5.4283250963 -0.0000028485
131 1 0.8982273230 -3.6831016048 1.8074970442
132 1 3.2759967742 -6.7131538881 3.6149975365
133 1 2.9611000153 -5.0196075161 -1.8075025125
134 1 2.6156204940 -3.2758912832 -0.0000026956
135 1 2.3002186221 -1.4510752053 1.8074972490
136 1 4.7469326874 -4.6360106362 3.6149976629
137 1 4.3794315778 -2.8727150615 -1.8075024269
138 1 3.9964993604 -1.0733625517 -0.0000025232
139 1 3.6229784345 0.7356624379 1.8074975368
140 1 6.1339976834 -2.4910502466 3.6149977329
141 1 5.7577719053 -0.7149181524 -1.8075022869
142 1 5.4066622739 1.0558896320 -0.0000022785
143 1 5.0850304077 2.8179229215 1.8074977286
144 1 7.5418099681 -0.3650330875 3.6149979086
145 1 7.1977818748 1.3976722908 -1.8075020851
146 1 6.8585163799 3.1667530314 -0.0000020927
147 1 6.5065652731 4.9444169397 1.8074978347
148 1 8.9762679947 1.7523175562 3.6149980960
149 1 8.6242795824 3.5252985626 -1.8075019300
150 1 8.2646968860 5.3044532356 -0.0000020217
151 1 7.9004089109 7.0822950808 1.8074979151
152 1 10.3905547989 3.8840531331 3.6149982325
153 1 10.0316421140 5.6595390267 -1.8075017858
154 1 9.6753296285 7.4325093737 -0.0000018490
155 1 9.3245636587 9.2009750014 1.8074981070
156 1 11.8044653692 6.0125814212 3.6149984425
157 1 11.4515751577 7.7836403255 -1.8075015631
158 1 11.1004686782 9.5541402668 -0.0000016614
159 1 10.7474967624 11.3260659304 1.8074983007
160 1 13.2257675916 8.1371107159 3.6149987026
161 1 12.8724748722 9.9092493678 -1.8075013620
162 1 12.5171903712 11.6826017227 -0.0000014545
163 1 12.1603594938 13.4563394047 1.8074984776
164 1 14.6435618291 10.2645803757 3.6149989508
165 1 14.2880580553 12.0377348310 -1.8075011514
166 1 13.9326983738 13.8104365727 -0.0000012290
167 1 13.5786344540 15.5822002826 1.8074987465
168 1 16.0601706427 12.3920697319 3.6149992181
169 1 15.7057837223 14.1642668988 -1.8075008694
170 1 15.3520180370 15.9361509252 -0.0000009008
171 1 14.9982086907 17.7082758697 1.8074990118
172 1 17.4786229690 14.5184141895 3.6149995741
173 1 17.1245194129 16.2906448732 -1.8075004818
174 1 16.7700449048 18.0631618938 -0.0000005667
175 1 18.8966499056 16.6452793125 3.6149999646
176 1 18.5419880219 18.4178428472 -1.8075001089
177 1 1.0281344916 -14.6448037470 3.6149971515
178 1 0.8982273217 -12.8995802536 -1.8075029558
179 1 0.6392934018 -10.9437657336 -0.0000031946
180 1 0.2837667269 -9.1363936082 1.8074973064
181 1 2.6156204941 -12.4923699325 3.6149973044
182 1 2.3002186233 -10.6675538561 -1.8075027510
183 1 1.9004719517 -8.7712595913 -0.0000026408
184 1 1.3990955899 -7.0227027420 1.8074972933
185 1 3.9964993599 -10.2898412023 3.6149974768
186 1 3.6229784337 -8.4808162113 -1.8075024632
187 1 3.2759967742 -6.7131538881 -0.0000024635
188 1 2.9611000153 -5.0196075161 1.8074974875
189 1 5.4066622740 -8.1605890171 3.6149977215
190 1 5.0850304092 -6.3985557298 -1.8075022714
191 1 4.7469326874 -4.6360106362 -0.0000023371
192 1 4.3794315778 -2.8727150615 1.8074975731
193 1 6.8585163795 -6.0497256192 3.6149979073
194 1 6.5065652723 -4.2720617098 -1.8075021653
195 1 6.1339976834 -2.4910502466 -0.0000022671
196 1 5.7577719053 -0.7149181524 1.8074977131
197 1 8.2646968863 -3.9120254141 3.6149979783
198 1 7.9004089114 -2.1341835695 -1.8075020848
199 1 7.5418099681 -0.3650330875 -0.0000020914
200 1 7.1977818748 1.3976722908 1.8074979149
201 1 9.6753296283 -1.7839692766 3.6149981510
202 1 9.3245636584 -0.0155036484 -1.8075018930
203 1 8.9762679947 1.7523175562 -0.0000019040
204 1 8.6242795824 3.5252985626 1.8074980700
205 1 11.1004686784 0.3376616169 3.6149983386
206 1 10.7474967626 2.1095872803 -1.8075016993
207 1 10.3905547989 3.8840531331 -0.0000017675
208 1 10.0316421140 5.6595390267 1.8074982142
209 1 12.5171903711 2.4661230726 3.6149985455
210 1 12.1603594936 4.2398607548 -1.8075015224
211 1 11.8044653692 6.0125814212 -0.0000015575
212 1 11.4515751577 7.7836403255 1.8074984369
213 1 13.9326983739 4.5939579228 3.6149987710
214 1 13.5786344540 6.3657216326 -1.8075012535
215 1 13.2257675916 8.1371107159 -0.0000012974
216 1 12.8724748722 9.9092493678 1.8074986380
217 1 15.3520180369 6.7196722752 3.6149990992
218 1 14.9982086906 8.4917972197 -1.8075009882
219 1 14.6435618291 10.2645803757 -0.0000010492
220 1 14.2880580553 12.0377348310 1.8074988486
221 1 16.7700449047 8.8466832438 3.6149994333
222 1 16.4151163245 10.6194349922 -1.8075006646
223 1 16.0601706427 12.3920697319 -0.0000007819
224 1 15.7057837223 14.1642668988 1.8074991306
225 1 18.1872621735 10.9738999806 3.6149997809
226 1 17.8327753444 12.7462431912 -1.8075003317
227 1 17.4786229690 14.5184141895 -0.0000004259
228 1 17.1245194129 16.2906448732 1.8074995182
229 1 19.6053445288 13.1005390856 -3.6149998684
230 1 19.2510718839 14.8728438486 -1.8074999417
231 1 18.8966499056 16.6452793125 -0.0000000354
232 1 18.5419880219 18.4178428472 1.8074998911
233 1 21.0233230107 15.2273716501 -3.6149995092
234 1 20.6687823132 16.9998480636 -1.8074996020
235 1 22.4410235492 17.3543293926 -3.6149992171
236 1 1.9004719513 -17.9877382418 3.6149973592
237 1 1.3990955899 -16.2391813913 -1.8075027066
238 1 1.0281344916 -14.6448037470 -0.0000028485
239 1 0.8982273217 -12.8995802536 1.8074970442
240 1 3.2759967743 -15.9296325373 3.6149975365
241 1 2.9611000160 -14.2360861670 -1.8075025125
242 1 2.6156204941 -12.4923699325 -0.0000026956
243 1 2.3002186233 -10.6675538561 1.8074972490
244 1 4.7469326872 -13.8524892867 3.6149976629
245 1 4.3794315772 -12.0891937109 -1.8075024269
246 1 3.9964993599 -10.2898412023 -0.0000025232
247 1 3.6229784337 -8.4808162113 1.8074975368
248 1 6.1339976836 -11.7075288962 3.6149977329
249 1 5.7577719057 -9.9313968028 -1.8075022869
250 1 5.4066622740 -8.1605890171 -0.0000022785
251 1 5.0850304092 -6.3985557298 1.8074977286
252 1 7.5418099680 -9.5815117379 3.6149979086
253 1 7.1977818743 -7.8188063587 -1.8075020851
254 1 6.8585163795 -6.0497256192 -0.0000020927
255 1 6.5065652723 -4.2720617098 1.8074978347
256 1 8.9762679949 -7.4641610936 3.6149980960
257 1 8.6242795829 -5.6911800877 -1.8075019300
258 1 8.2646968863 -3.9120254141 -0.0000020217
259 1 7.9004089114 -2.1341835695 1.8074979152
260 1 10.3905547987 -5.3324255171 3.6149982325
261 1 10.0316421137 -3.5569396232 -1.8075017858
262 1 9.6753296283 -1.7839692766 -0.0000018490
263 1 9.3245636584 -0.0155036484 1.8074981070
264 1 11.8044653693 -3.2038972287 3.6149984425
265 1 11.4515751579 -1.4328383246 -1.8075015631
266 1 11.1004686784 0.3376616169 -0.0000016614
267 1 10.7474967626 2.1095872803 1.8074983007
268 1 13.2257675916 -1.0793679341 3.6149987026
269 1 12.8724748721 0.6927707178 -1.8075013620
270 1 12.5171903711 2.4661230726 -0.0000014545
271 1 12.1603594936 4.2398607548 1.8074984776
272 1 14.6435618291 1.0481017257 3.6149989508
273 1 14.2880580553 2.8212561810 -1.8075011514
274 1 13.9326983739 4.5939579228 -0.0000012290
275 1 13.5786344540 6.3657216326 1.8074987465
276 1 16.0601706426 3.1755910819 3.6149992181
277 1 15.7057837222 4.9477882488 -1.8075008694
278 1 15.3520180369 6.7196722752 -0.0000009008
279 1 14.9982086906 8.4917972197 1.8074990118
280 1 17.4786229690 5.3019355396 3.6149995741
281 1 17.1245194129 7.0741662232 -1.8075004818
282 1 16.7700449047 8.8466832438 -0.0000005667
283 1 16.4151163245 10.6194349922 1.8074993354
284 1 18.8966499056 7.4288006625 3.6149999646
285 1 18.5419880218 9.2013641972 -1.8075001089
286 1 18.1872621735 10.9738999806 -0.0000002191
287 1 17.8327753444 12.7462431912 1.8074996683
288 1 20.3141858712 9.5558495167 -3.6149996636
289 1 19.9596805973 11.3282425779 -1.8074997485
290 1 19.6053445288 13.1005390856 0.0000001316
291 1 19.2510718839 14.8728438486 1.8075000583
292 1 21.7321136600 11.6826181196 -3.6149993229
293 1 21.3777458755 13.4549666759 -1.8074994070
294 1 21.0233230107 15.2273716501 0.0000004908
295 1 20.6687823132 16.9998480636 1.8075003980
296 1 23.1500434137 13.8094495123 -3.6149990270
297 1 22.7955520969 15.5818840481 -1.8074991370
298 1 22.4410235492 17.3543293926 0.0000007829
299 1 24.5678234582 15.9363578957 -3.6149987422
300 1 24.2133384707 17.7087699140 -1.8074988315
301 1 25.9856726812 18.0632080318 -3.6149983761
302 1 1.9004719513 -17.9877382418 -0.0000026408
303 1 1.3990955899 -16.2391813913 1.8074972934
304 1 3.6229784339 -17.6972948615 -1.8075024632
305 1 3.2759967743 -15.9296325373 -0.0000024635
306 1 2.9611000160 -14.2360861670 1.8074974875
307 1 5.4066622740 -17.3770676673 3.6149977215
308 1 5.0850304088 -15.6150343794 -1.8075022714
309 1 4.7469326872 -13.8524892867 -0.0000023371
310 1 4.3794315772 -12.0891937109 1.8074975731
311 1 6.8585163796 -15.2662042689 3.6149979073
312 1 6.5065652726 -13.4885403601 -1.8075021653
313 1 6.1339976836 -11.7075288962 -0.0000022671
314 1 5.7577719057 -9.9313968028 1.8074977131
315 1 8.2646968863 -13.1285040642 3.6149979783
316 1 7.9004089112 -11.3506622193 -1.8075020849
317 1 7.5418099680 -9.5815117379 -0.0000020914
318 1 7.1977818743 -7.8188063587 1.8074979149
319 1 9.6753296284 -11.0004479264 3.6149981510
320 1 9.3245636587 -9.2319822986 -1.8075018930
321 1 8.9762679949 -7.4641610936 -0.0000019040
322 1 8.6242795829 -5.6911800877 1.8074980700
323 1 11.1004686783 -8.8788170332 3.6149983386
324 1 10.7474967625 -7.1068913697 -1.8075016993
325 1 10.3905547987 -5.3324255171 -0.0000017675
326 1 10.0316421137 -3.5569396232 1.8074982142
327 1 12.5171903712 -6.7503555774 3.6149985455
328 1 12.1603594938 -4.9766178953 -1.8075015224
329 1 11.8044653693 -3.2038972287 -0.0000015575
330 1 11.4515751579 -1.4328383246 1.8074984369
331 1 13.9326983738 -4.6225207273 3.6149987710
332 1 13.5786344539 -2.8507570174 -1.8075012535
333 1 13.2257675916 -1.0793679341 -0.0000012974
334 1 12.8724748721 0.6927707178 1.8074986380
335 1 15.3520180370 -2.4968063748 3.6149990992
336 1 14.9982086907 -0.7246814303 -1.8075009882
337 1 14.6435618291 1.0481017257 -0.0000010492
338 1 14.2880580553 2.8212561810 1.8074988486
339 1 16.7700449047 -0.3697954062 3.6149994333
340 1 16.4151163245 1.4029563422 -1.8075006646
341 1 16.0601706426 3.1755910819 -0.0000007819
342 1 15.7057837222 4.9477882488 1.8074991306
343 1 18.1872621735 1.7574213306 3.6149997809
344 1 17.8327753444 3.5297645412 -1.8075003317
345 1 17.4786229690 5.3019355396 -0.0000004259
346 1 17.1245194129 7.0741662232 1.8074995182
347 1 19.6053445288 3.8840604356 -3.6149998684
348 1 19.2510718839 5.6563651987 -1.8074999417
349 1 18.8966499056 7.4288006625 -0.0000000354
350 1 18.5419880218 9.2013641972 1.8074998911
351 1 21.0233230106 6.0108930001 -3.6149995092
352 1 20.6687823132 7.7833694136 -1.8074996020
353 1 20.3141858712 9.5558495167 0.0000003364
354 1 19.9596805973 11.3282425779 1.8075002515
355 1 22.4410235492 8.1378507426 -3.6149992171
356 1 22.0865276168 9.9102603164 -1.8074992642
357 1 21.7321136600 11.6826181196 0.0000006771
358 1 21.3777458755 13.4549666759 1.8075005930
359 1 23.8588932499 10.2646767794 -3.6149988684
360 1 23.5044776262 12.0370518990 -1.8074989184
361 1 23.1500434137 13.8094495123 0.0000009730
362 1 22.7955520969 15.5818840481 1.8075008630
363 1 25.2767903041 12.3915153121 -3.6149985138
364 1 24.9223185468 14.1639318430 -1.8074986154
365 1 24.5678234582 15.9363578957 0.0000012578
366 1 24.2133384707 17.7087699140 1.8075011685
367 1 26.6946071200 14.5183986913 -3.6149981849
368 1 26.3401296707 16.2908105714 -1.8074982684
369 1 25.9856726812 18.0632080318 0.0000016239
370 1 28.1124485131 16.6452600056 -3.6149978486
371 1 27.7580009231 18.4176549479 -1.8074979387
372 1 3.6229784339 -17.6972948615 1.8074975368
373 1 5.4066622740 -17.3770676673 -0.0000022785
374 1 5.0850304088 -15.6150343794 1.8074977286
375 1 7.1977818744 -17.0352850089 -1.8075020851
376 1 6.8585163796 -15.2662042689 -0.0000020927
377 1 6.5065652726 -13.4885403601 1.8074978347
378 1 8.9762679949 -16.6806397437 3.6149980960
379 1 8.6242795828 -14.9076587375 -1.8075019300
380 1 8.2646968863 -13.1285040642 -0.0000020217
381 1 7.9004089112 -11.3506622193 1.8074979151
382 1 10.3905547988 -14.5489041670 3.6149982325
383 1 10.0316421139 -12.7734182733 -1.8075017858
384 1 9.6753296284 -11.0004479264 -0.0000018490
385 1 9.3245636587 -9.2319822986 1.8074981070
386 1 11.8044653693 -12.4203758788 3.6149984425
387 1 11.4515751578 -10.6493169746 -1.8075015631
388 1 11.1004686783 -8.8788170332 -0.0000016614
389 1 10.7474967625 -7.1068913697 1.8074983007
390 1 13.2257675917 -10.2958465841 3.6149987026
391 1 12.8724748722 -8.5237079322 -1.8075013620
392 1 12.5171903712 -6.7503555774 -0.0000014545
393 1 12.1603594938 -4.9766178953 1.8074984776
394 1 14.6435618291 -8.1683769243 3.6149989508
395 1 14.2880580553 -6.3952224690 -1.8075011514
396 1 13.9326983738 -4.6225207273 -0.0000012290
397 1 13.5786344539 -2.8507570174 1.8074987465
398 1 16.0601706427 -6.0408875681 3.6149992181
399 1 15.7057837222 -4.2686904012 -1.8075008694
400 1 15.3520180370 -2.4968063748 -0.0000009008
401 1 14.9982086907 -0.7246814303 1.8074990118
402 1 17.4786229689 -3.9145431104 3.6149995741
403 1 17.1245194129 -2.1423124268 -1.8075004818
404 1 16.7700449047 -0.3697954062 -0.0000005667
405 1 16.4151163245 1.4029563422 1.8074993354
406 1 18.8966499056 -1.7876779875 3.6149999646
407 1 18.5419880218 -0.0151144528 -1.8075001089
408 1 18.1872621735 1.7574213306 -0.0000002191
409 1 17.8327753444 3.5297645412 1.8074996683
410 1 20.3141858712 0.3393708667 -3.6149996636
411 1 19.9596805973 2.1117639279 -1.8074997485
412 1 19.6053445288 3.8840604356 0.0000001316
413 1 19.2510718839 5.6563651987 1.8075000583
414 1 21.7321136600 2.4661394696 -3.6149993229
415 1 21.3777458754 4.2384880260 -1.8074994070
416 1 21.0233230106 6.0108930001 0.0000004908
417 1 20.6687823132 7.7833694136 1.8075003980
418 1 23.1500434136 4.5929708624 -3.6149990270
419 1 22.7955520969 6.3654053981 -1.8074991370
420 1 22.4410235492 8.1378507426 0.0000007829
421 1 22.0865276168 9.9102603164 1.8075007358
422 1 24.5678234581 6.7198792457 -3.6149987422
423 1 24.2133384706 8.4922912640 -1.8074988315
424 1 23.8588932499 10.2646767794 0.0000011316
425 1 23.5044776262 12.0370518990 1.8075010816
426 1 25.9856726811 8.8467293819 -3.6149983761
427 1 25.6312341007 10.6191180928 -1.8074984354
428 1 25.2767903041 12.3915153121 0.0000014862
429 1 24.9223185468 14.1639318430 1.8075013846
430 1 27.4035520270 10.9735735054 -3.6149980258
431 1 27.0490871298 12.7459820101 -1.8074980954
432 1 26.6946071200 14.5183986913 0.0000018151
433 1 26.3401296707 16.2908105714 1.8075017316
434 1 28.8213846073 13.1004442208 -3.6149977055
435 1 28.4669095468 14.8728568588 -1.8074977668
436 1 28.1124485131 16.6452600056 0.0000021514
437 1 27.7580009231 18.4176549479 1.8075020613
438 1 30.2392188198 15.2273139846 -3.6149973917
439 1 29.8847706306 16.9997107486 -1.8074974602
440 1 31.6570987823 17.3541573235 -3.6149971492
441 1 7.1977818744 -17.0352850089 1.8074979149
442 1 8.9762679949 -16.6806397437 -0.0000019040
443 1 8.6242795828 -14.9076587375 1.8074980700
444 1 11.1004686784 -18.0952956831 3.6149983386
445 1 10.7474967626 -16.3233700197 -1.8075016993
446 1 10.3905547988 -14.5489041670 -0.0000017675
447 1 10.0316421139 -12.7734182733 1.8074982142
448 1 12.5171903712 -15.9668342274 3.6149985455
449 1 12.1603594938 -14.1930965453 -1.8075015224
450 1 11.8044653693 -12.4203758788 -0.0000015575
451 1 11.4515751578 -10.6493169746 1.8074984369
452 1 13.9326983739 -13.8389993773 3.6149987710
453 1 13.5786344540 -12.0672356674 -1.8075012535
454 1 13.2257675917 -10.2958465841 -0.0000012974
455 1 12.8724748722 -8.5237079322 1.8074986380
456 1 15.3520180370 -11.7132850249 3.6149990992
457 1 14.9982086907 -9.9411600803 -1.8075009882
458 1 14.6435618291 -8.1683769243 -0.0000010492
459 1 14.2880580553 -6.3952224690 1.8074988486
460 1 16.7700449048 -9.5862740562 3.6149994333
461 1 16.4151163245 -7.8135223078 -1.8075006646
462 1 16.0601706427 -6.0408875681 -0.0000007819
463 1 15.7057837222 -4.2686904012 1.8074991306
464 1 18.1872621735 -7.4590573194 3.6149997809
465 1 17.8327753444 -5.6867141088 -1.8075003317
466 1 17.4786229689 -3.9145431104 -0.0000004259
467 1 17.1245194129 -2.1423124268 1.8074995182
468 1 19.6053445288 -5.3324182144 -3.6149998684
469 1 19.2510718839 -3.5601134513 -1.8074999417
470 1 18.8966499056 -1.7876779875 -0.0000000354
471 1 18.5419880218 -0.0151144528 1.8074998911
472 1 21.0233230106 -3.2055856499 -3.6149995092
473 1 20.6687823132 -1.4331092364 -1.8074996020
474 1 20.3141858712 0.3393708667 0.0000003364
475 1 19.9596805973 2.1117639279 1.8075002515
476 1 22.4410235492 -1.0786279074 -3.6149992171
477 1 22.0865276168 0.6937816665 -1.8074992642
478 1 21.7321136600 2.4661394696 0.0000006771
479 1 21.3777458754 4.2384880260 1.8075005930
480 1 23.8588932498 1.0481981294 -3.6149988684
481 1 23.5044776261 2.8205732490 -1.8074989184
482 1 23.1500434136 4.5929708624 0.0000009730
483 1 22.7955520969 6.3654053981 1.8075008630
484 1 25.2767903040 3.1750366621 -3.6149985138
485 1 24.9223185468 4.9474531930 -1.8074986154
486 1 24.5678234581 6.7198792457 0.0000012578
487 1 24.2133384706 8.4922912640 1.8075011685
488 1 26.6946071200 5.3019200414 -3.6149981849
489 1 26.3401296707 7.0743319214 -1.8074982684
490 1 25.9856726811 8.8467293819 0.0000016239
491 1 25.6312341007 10.6191180928 1.8075015646
492 1 28.1124485131 7.4287813556 -3.6149978486
493 1 27.7580009230 9.2011762980 -1.8074979387
494 1 27.4035520270 10.9735735054 0.0000019742
495 1 27.0490871298 12.7459820101 1.8075019046
496 1 29.5303224768 9.5556272968 -3.6149975343
497 1 29.1758602523 11.3280312560 -1.8074975995
498 1 28.8213846073 13.1004442208 0.0000022945
499 1 28.4669095468 14.8728568588 1.8075022332
500 1 30.9481618212 11.6824898575 -3.6149972767
501 1 30.5936823917 13.4549063473 -1.8074973523
502 1 30.2392188198 15.2273139846 0.0000026083
503 1 29.8847706306 16.9997107486 1.8075025398
504 1 32.3659805584 13.8093723337 -3.6149970721
505 1 32.0115380483 15.5817684204 -1.8074971136
506 1 31.6570987823 17.3541573235 0.0000028508
507 1 33.7838795917 15.9362085901 -3.6149968973
508 1 33.4294312601 17.7085957893 -1.8074969199
509 1 35.2017421245 18.0630387545 -3.6149967686
510 1 11.1004686784 -18.0952956831 -0.0000016614
511 1 10.7474967626 -16.3233700197 1.8074983007
512 1 12.8724748722 -17.7401865822 -1.8075013620
513 1 12.5171903712 -15.9668342274 -0.0000014545
514 1 12.1603594938 -14.1930965453 1.8074984776
515 1 14.6435618291 -17.3848555743 3.6149989508
516 1 14.2880580553 -15.6117011190 -1.8075011514
517 1 13.9326983739 -13.8389993773 -0.0000012290
518 1 13.5786344540 -12.0672356674 1.8074987465
519 1 16.0601706427 -15.2573662181 3.6149992181
520 1 15.7057837223 -13.4851690512 -1.8075008694
521 1 15.3520180370 -11.7132850249 -0.0000009008
522 1 14.9982086907 -9.9411600803 1.8074990118
523 1 17.4786229690 -13.1310217604 3.6149995741
524 1 17.1245194129 -11.3587910768 -1.8075004818
525 1 16.7700449048 -9.5862740562 -0.0000005667
526 1 16.4151163245 -7.8135223078 1.8074993354
527 1 18.8966499056 -11.0041566375 3.6149999646
528 1 18.5419880219 -9.2315931028 -1.8075001089
529 1 18.1872621735 -7.4590573194 -0.0000002191
530 1 17.8327753444 -5.6867141088 1.8074996683
531 1 20.3141858712 -8.8771077833 -3.6149996636
532 1 19.9596805973 -7.1047147221 -1.8074997485
533 1 19.6053445288 -5.3324182144 0.0000001316
534 1 19.2510718839 -3.5601134513 1.8075000583
535 1 21.7321136600 -6.7503391804 -3.6149993229
536 1 21.3777458754 -4.9779906240 -1.8074994070
537 1 21.0233230106 -3.2055856499 0.0000004908
538 1 20.6687823132 -1.4331092364 1.8075003980
539 1 23.1500434136 -4.6235077876 -3.6149990270
540 1 22.7955520969 -2.8510732519 -1.8074991370
541 1 22.4410235492 -1.0786279074 0.0000007829
542 1 22.0865276168 0.6937816665 1.8075007358
543 1 24.5678234581 -2.4965994043 -3.6149987422
544 1 24.2133384706 -0.7241873859 -1.8074988315
545 1 23.8588932498 1.0481981294 0.0000011316
546 1 23.5044776261 2.8205732490 1.8075010816
547 1 25.9856726811 -0.3697492681 -3.6149983761
548 1 25.6312341006 1.4026394429 -1.8074984354
549 1 25.2767903040 3.1750366621 0.0000014862
550 1 24.9223185468 4.9474531930 1.8075013846
551 1 27.4035520269 1.7570948554 -3.6149980258
552 1 27.0490871297 3.5295033602 -1.8074980954
553 1 26.6946071200 5.3019200414 0.0000018151
554 1 26.3401296707 7.0743319214 1.8075017316
555 1 28.8213846072 3.8839655708 -3.6149977055
556 1 28.4669095468 5.6563782089 -1.8074977667
557 1 28.1124485131 7.4287813556 0.0000021514
558 1 27.7580009230 9.2011762980 1.8075020613
559 1 30.2392188198 6.0108353347 -3.6149973917
560 1 29.8847706305 7.7832320986 -1.8074974602
561 1 29.5303224768 9.5556272968 0.0000024657
562 1 29.1758602523 11.3280312560 1.8075024005
563 1 31.6570987823 8.1376786736 -3.6149971492
564 1 31.3026401541 9.9100772054 -1.8074972193
565 1 30.9481618212 11.6824898575 0.0000027233
566 1 30.5936823917 13.4549063473 1.8075026477
567 1 33.0749443627 10.2645309438 -3.6149969690
568 1 32.7204501142 12.0369571296 -1.8074970322
569 1 32.3659805584 13.8093723337 0.0000029279
570 1 32.0115380483 15.5817684204 1.8075028864
571 1 34.4927272001 12.3914385935 -3.6149968461
572 1 34.1382960959 14.1638338116 -1.8074968781
573 1 33.7838795917 15.9362085901 0.0000031027
574 1 33.4294312601 17.7085957893 1.8075030801
575 1 35.9106624415 14.5182647565 -3.6149967332
576 1 35.5562428442 16.2906257048 -1.8074967417
577 1 35.2017421245 18.0630387545 0.0000032314
578 1 37.3285762803 16.6450413751 -3.6149966676
579 1 36.9739794080 18.4175243890 -1.8074966539
580 1 12.8724748722 -17.7401865822 1.8074986380
581 1 14.6435618291 -17.3848555743 -0.0000010492
582 1 14.2880580553 -15.6117011190 1.8074988486
583 1 16.4151163246 -17.0300009578 -1.8075006646
584 1 16.0601706427 -15.2573662181 -0.0000007819
585 1 15.7057837223 -13.4851690512 1.8074991306
586 1 18.1872621736 -16.6755359694 3.6149997809
587 1 17.8327753445 -14.9031927588 -1.8075003317
588 1 17.4786229690 -13.1310217604 -0.0000004259
589 1 17.1245194129 -11.3587910768 1.8074995182
590 1 19.6053445288 -14.5488968644 -3.6149998684
591 1 19.2510718839 -12.7765921014 -1.8074999417
592 1 18.8966499056 -11.0041566375 -0.0000000354
593 1 18.5419880219 -9.2315931028 1.8074998911
594 1 21.0233230107 -12.4220642999 -3.6149995092
595 1 20.6687823132 -10.6495878864 -1.8074996020
596 1 20.3141858712 -8.8771077833 0.0000003364
597 1 19.9596805973 -7.1047147221 1.8075002515
598 1 22.4410235492 -10.2951065574 -3.6149992171
599 1 22.0865276168 -8.5226969835 -1.8074992642
600 1 21.7321136600 -6.7503391804 0.0000006771
601 1 21.3777458754 -4.9779906240 1.8075005930
602 1 23.8588932498 -8.1682805206 -3.6149988684
603 1 23.5044776261 -6.3959054010 -1.8074989184
604 1 23.1500434136 -4.6235077876 0.0000009730
605 1 22.7955520969 -2.8510732519 1.8075008630
606 1 25.2767903040 -6.0414419879 -3.6149985138
607 1 24.9223185468 -4.2690254570 -1.8074986154
608 1 24.5678234581 -2.4965994043 0.0000012578
609 1 24.2133384706 -0.7241873859 1.8075011685
610 1 26.6946071199 -3.9145586086 -3.6149981849
611 1 26.3401296706 -2.1421467286 -1.8074982684
612 1 25.9856726811 -0.3697492681 0.0000016239
613 1 25.6312341006 1.4026394429 1.8075015646
614 1 28.1124485130 -1.7876972944 -3.6149978486
615 1 27.7580009230 -0.0153023520 -1.8074979387
616 1 27.4035520269 1.7570948554 0.0000019742
617 1 27.0490871297 3.5295033602 1.8075019046
618 1 29.5303224767 0.3391486468 -3.6149975343
619 1 29.1758602522 2.1115526061 -1.8074975995
620 1 28.8213846072 3.8839655708 0.0000022945
621 1 28.4669095468 5.6563782089 1.8075022333
622 1 30.9481618211 2.4660112075 -3.6149972767
623 1 30.5936823916 4.2384276974 -1.8074973523
624 1 30.2392188198 6.0108353347 0.0000026083
625 1 29.8847706305 7.7832320986 1.8075025398
626 1 32.3659805583 4.5928936838 -3.6149970721
627 1 32.0115380483 6.3652897704 -1.8074971136
628 1 31.6570987823 8.1376786736 0.0000028508
629 1 31.3026401541 9.9100772054 1.8075027807
630 1 33.7838795917 6.7197299401 -3.6149968973
631 1 33.4294312601 8.4921171393 -1.8074969199
632 1 33.0749443627 10.2645309438 0.0000030310
633 1 32.7204501142 12.0369571296 1.8075029678
634 1 35.2017421245 8.8465601045 -3.6149967686
635 1 34.8472141536 10.6190060718 -1.8074968041
636 1 34.4927272001 12.3914385935 0.0000031539