#LAMMPS data file
2504 atoms
2 atom types
-55.4988719000 55.4988719000 xlo xhi
-18.4329573000 18.4329573000 ylo yhi
-3.6150000000 3.6150000000 zlo zhi
0.0 0.0 0.0 xy xz yz

Atoms # atomic

1 1 0.6268027561 16.8070056491 -3.5919020969
2 1 0.2963337883 -18.2347710166 -1.7844018131
3 1 0.9573245254 13.0783962614 -3.5919019616
4 1 0.8206686465 14.8429957501 -1.7844020211
5 1 0.6268027559 16.8070056488 0.0230979149
6 1 0.2963338017 -18.2347710214 1.8305981869
7 1 2.5512668198 15.1943240193 -3.5919017818
8 1 2.2735954920 17.0427493837 -1.7844018499
9 1 3.9550929821 17.3903709323 -3.5919015938
10 1 0.4265869285 7.3603242441 -3.5919019843
11 1 0.0910783992 9.0773277073 -1.7844020171
12 1 1.7484334304 9.5675867731 -3.5919018574
13 1 1.2805872791 11.3446947383 -1.7844019383
14 1 0.9573245254 13.0783962621 0.0230980374
15 1 0.8206686409 14.8429957558 1.8305979781
16 1 3.1381705226 11.6809362352 -3.5919016621
17 1 2.8415927533 13.4067591004 -1.7844017126
18 1 2.5512668196 15.1943240192 0.0230982165
19 1 2.2735954844 17.0427493852 1.8305981502
20 1 4.6407262163 13.7765586569 -3.5919014369
21 1 4.3073289288 15.5578565670 -1.7844015170
22 1 3.9550929822 17.3903709323 0.0230984037
23 1 6.0621424302 15.9282120410 -3.5919012616
24 1 5.7059959812 17.7216633575 -1.7844013290
25 1 7.4957279157 18.0525450243 -3.5919010672
26 1 1.1511391510 3.7821388192 -3.5919019996
27 1 0.7806673824 5.5864870201 -1.7844019990
28 1 0.4265869300 7.3603242439 0.0230980116
29 1 0.0910783962 9.0773277115 1.8305979829
30 1 2.5451745399 5.9479042048 -3.5919017350
31 1 2.1908768608 7.7342685758 -1.7844017719
32 1 1.7484334304 9.5675867728 0.0230981401
33 1 1.2805872781 11.3446947381 1.8305980621
34 1 3.9100429704 8.1332306188 -3.5919015626
35 1 3.5037615231 9.9249834689 -1.7844016228
36 1 3.1381705228 11.6809362352 0.0230983380
37 1 2.8415927554 13.4067590990 1.8305982874
38 1 5.3051033717 10.2675463244 -3.5919013198
39 1 4.9691155523 12.0191573414 -1.7844013726
40 1 4.6407262163 13.7765586568 0.0230985640
41 1 4.3073289306 15.5578565653 1.8305984831
42 1 6.7657151757 12.3755907094 -3.5919011103
43 1 6.4195185207 14.1441793833 -1.7844011790
44 1 6.0621424302 15.9282120410 0.0230987388
45 1 5.7059959818 17.7216633577 1.8305986710
46 1 8.1940446537 14.5076786991 -3.5919009262
47 1 7.8383466888 16.2814556925 -1.7844009899
48 1 7.4957279157 18.0525450243 0.0230989330
49 1 9.6294318509 16.6277672159 -3.5919007023
50 1 9.2957148072 18.3886708617 -1.7844007718
51 1 0.4538745496 -1.8858817375 -3.5919020232
52 1 0.1331181597 -0.1972980020 -1.7844020561
53 1 1.9169292489 0.2298623689 -3.5919017910
54 1 1.5382994793 1.9864308804 -1.7844019117
55 1 1.1511391508 3.7821388193 0.0230979997
56 1 0.7806673806 5.5864870190 1.8305980009
57 1 3.2961457836 2.4013700412 -3.5919016159
58 1 2.9105179696 4.1710458000 -1.7844016885
59 1 2.5451745395 5.9479042051 0.0230982657
60 1 2.1908768666 7.7342685736 1.8305982276
61 1 4.6826696528 4.5602331802 -3.5919013973
62 1 4.3061528160 6.3344702694 -1.7844014672
63 1 3.9100429702 8.1332306188 0.0230984399
64 1 3.5037615239 9.9249834682 1.8305983772
65 1 6.0617513961 6.7226387905 -3.5919012289
66 1 5.6732163544 8.5003472711 -1.7844012834
67 1 5.3051033717 10.2675463244 0.0230986803
68 1 4.9691155519 12.0191573417 1.8305986273
69 1 7.4624474045 8.8579790196 -3.5919009974
70 1 7.1088225660 10.6160255127 -1.7844010505
71 1 6.7657151756 12.3755907094 0.0230988896
72 1 6.4195185201 14.1441793837 1.8305988210
73 1 8.9019035251 10.9734920990 -3.5919007833
74 1 8.5497283141 12.7370557242 -1.7844008514
75 1 8.1940446537 14.5076786991 0.0230990735
76 1 7.8383466887 16.2814556926 1.8305990100
77 1 10.3318996369 13.0973460408 -3.5919005927
78 1 9.9769850370 14.8633489206 -1.7844006528
79 1 9.6294318509 16.6277672158 0.0230992976
80 1 9.2957148072 18.3886708614 1.8305992283
81 1 11.7668328653 15.2150379713 -3.5919003833
82 1 11.4246555276 16.9745674867 -1.7844004291
83 1 13.2169604032 17.3251742655 -3.5919001357
84 1 1.2237678888 -5.3757441471 -3.5919019067
85 1 0.8147007299 -3.6283632939 -1.7844019841
86 1 0.4538745500 -1.8858817366 0.0230979772
87 1 0.1331181618 -0.1972980035 1.8305979436
88 1 2.6274298064 -3.2349087883 -3.5919016419
89 1 2.2762504185 -1.5142685109 -1.7844017178
90 1 1.9169292487 0.2298623686 0.0230982110
91 1 1.5382994810 1.9864308790 1.8305980884
92 1 4.0641788717 -1.1130827053 -3.5919014036
93 1 3.6851831074 0.6368264758 -1.7844014968
94 1 3.2961457837 2.4013700412 0.0230983845
95 1 2.9105179698 4.1710457998 1.8305983117
96 1 5.4518086343 1.0350606814 -3.5919012060
97 1 5.0642679372 2.7957772243 -1.7844013216
98 1 4.6826696530 4.5602331801 0.0230986021
99 1 4.3061528135 6.3344702713 1.8305985329
100 1 6.8350204106 3.1811800409 -3.5919010367
101 1 6.4508082901 4.9474237687 -1.7844011198
102 1 6.0617513962 6.7226387904 0.0230987702
103 1 5.6732163534 8.5003472713 1.8305987167
104 1 8.2184474823 5.3261887348 -3.5919008402
105 1 7.8347901910 7.0942630227 -1.7844009249
106 1 7.4624474046 8.8579790196 0.0230990024
107 1 7.1088225661 10.6160255127 1.8305989495
108 1 9.6193081136 7.4557625992 -3.5919006229
109 1 9.2561861442 9.2147544812 -1.7844007123
110 1 8.9019035251 10.9734920990 0.0230992168
111 1 8.5497283141 12.7370557239 1.8305991486
112 1 11.0456111260 9.5724177476 -3.5919004237
113 1 10.6884724123 11.3332999677 -1.7844004923
114 1 10.3318996369 13.0973460408 0.0230994074
115 1 9.9769850370 14.8633489206 1.8305993472
116 1 12.4731221786 11.6911782951 -3.5919002355
117 1 12.1174545148 13.4535818782 -1.7844003236
118 1 11.7668328652 15.2150379713 0.0230996167
119 1 11.4246555274 16.9745674867 1.8305995708
120 1 13.9055428236 13.8068198400 -3.5919000448
121 1 13.5582421942 15.5662988461 -1.7844001005
122 1 13.2169604032 17.3251742655 0.0230998643
123 1 15.3471398103 15.9189392832 -3.5918998674
124 1 15.0039583117 17.6795265493 -1.7843998788
125 1 16.7858153687 18.0363624723 -3.5918997004
126 1 0.7356695529 -10.8786135789 -3.5919020555
127 1 0.4891515847 -9.1295099551 -1.7844019307
128 1 2.1523397317 -8.8090007198 -3.5919017175
129 1 1.7194340102 -7.0480535657 -1.7844017621
130 1 1.2237678874 -5.3757441485 0.0230980997
131 1 0.8147007284 -3.6283632959 1.8305980168
132 1 3.4563011246 -6.6858649534 -3.5919015066
133 1 3.0336015584 -4.9378942394 -1.7844015758
134 1 2.6274298067 -3.2349087874 0.0230983534
135 1 2.2762504176 -1.5142685079 1.8305982818
136 1 4.8190695679 -4.5821454693 -3.5919012949
137 1 4.4414515541 -2.8444500205 -1.7844013427
138 1 4.0641788715 -1.1130827057 0.0230985975
139 1 3.6851831059 0.6368264757 1.8305985033
140 1 6.2197303447 -2.4755981078 -3.5919010554
141 1 5.8396256188 -0.7205707083 -1.7844011307
142 1 5.4518086344 1.0350606815 0.0230987929
143 1 5.0642679372 2.7957772247 1.8305986783
144 1 7.6041699969 -0.3459885425 -3.5919008498
145 1 7.2201093760 1.4186088748 -1.7844009365
146 1 6.8350204105 3.1811800409 0.0230989638
147 1 6.4508082908 4.9474237681 1.8305988802
148 1 8.9857566371 1.7893056824 -3.5919006800
149 1 8.6034948307 3.5578094285 -1.7844007544
150 1 8.2184474823 5.3261887349 0.0230991600
151 1 7.8347901914 7.0942630225 1.8305990750
152 1 10.3713406006 3.9240618187 -3.5919004744
153 1 9.9927342811 5.6924067740 -1.7844005552
154 1 9.6193081136 7.4557625992 0.0230993773
155 1 9.2561861442 9.2147544812 1.8305992878
156 1 11.7714854584 6.0495457485 -3.5919002799
157 1 11.4058573066 7.8123992389 -1.7844003611
158 1 11.0456111259 9.5724177476 0.0230995764
159 1 10.6884724122 11.3332999678 1.8305995077
160 1 13.1899247462 8.1664920601 -3.5919000904
161 1 12.8308768588 9.9289544756 -1.7844001663
162 1 12.4731221786 11.6911782951 0.0230997645
163 1 12.1174545148 13.4535818782 1.8305996764
164 1 14.6140312835 10.2829748343 -3.5918999162
165 1 14.2581684746 12.0457187631 -1.7843999738
166 1 13.9055428236 13.8068198400 0.0230999551
167 1 13.5582421942 15.5662988460 1.8305998996
168 1 16.0433309498 12.3977347944 -3.5918997680
169 1 15.6933563476 14.1589110980 -1.7843998248
170 1 15.3471398103 15.9189392832 0.0231001326
171 1 15.0039583117 17.6795265493 1.8306001212
172 1 17.4786940069 14.5111692400 -3.5918996440
173 1 17.1318649483 16.2732145229 -1.7843996833
174 1 16.7858153687 18.0363624722 0.0231002996
175 1 18.9124147734 16.6286840235 -3.5918995143
176 1 18.5636451281 18.3943719241 -1.7843995325
177 1 0.9973420493 -14.4926359745 -3.5919019921
178 1 0.8941151183 -12.7517296404 -1.7844020358
179 1 0.7356695329 -10.8786135882 0.0230979043
180 1 0.4891515924 -9.1295099200 1.8305980762
181 1 2.6805675053 -12.4498156833 -3.5919017112
182 1 2.4530124822 -10.6611435348 -1.7844017674
183 1 2.1523397413 -8.8090007115 0.0230982749
184 1 1.7194340103 -7.0480535573 1.8305982361
185 1 4.1707449315 -10.3180156982 -3.5919014823
186 1 3.8353170027 -8.4992015126 -1.7844014846
187 1 3.4563011217 -6.6858649585 0.0230984984
188 1 3.0336015533 -4.9378942490 1.8305984259
189 1 5.5540316134 -8.1574520476 -3.5919012066
190 1 5.1913592024 -6.3571474092 -1.7844012421
191 1 4.8190695693 -4.5821454673 0.0230987016
192 1 4.4414515581 -2.8444500162 1.8305986567
193 1 6.9418693831 -6.0212516780 -3.5919009349
194 1 6.5856525538 -4.2415642216 -1.7844009842
195 1 6.2197303443 -2.4755981085 0.0230989467
196 1 5.8396256182 -0.7205707107 1.8305988696
197 1 8.3437659556 -3.8951879037 -3.5919007068
198 1 7.9800252505 -2.1172098565 -1.7844007725
199 1 7.6041699971 -0.3459885423 0.0230991496
200 1 7.2201093766 1.4186088756 1.8305990634
201 1 9.7354639854 -1.7616587432 -3.5919005257
202 1 9.3638817800 0.0167317545 -1.7844006034
203 1 8.9857566371 1.7893056823 0.0230993203
204 1 8.6034948301 3.5578094286 1.8305992456
205 1 11.1226362974 0.3740170316 -3.5919003640
206 1 10.7490510091 2.1512287311 -1.7844004214
207 1 10.3713406007 3.9240618187 0.0230995253
208 1 9.9927342811 5.6924067742 1.8305994448
209 1 12.5130488358 2.5071562590 -3.5919001732
210 1 12.1416721634 4.2812390619 -1.7844002303
211 1 11.7714854584 6.0495457485 0.0230997202
212 1 11.4058573065 7.8123992389 1.8305996390
213 1 13.9145633009 4.6329232557 -3.5919000106
214 1 13.5509980148 6.4018301134 -1.7844000495
215 1 13.1899247462 8.1664920601 0.0230999095
216 1 12.8308768587 9.9289544756 1.8305998337
217 1 15.3295419028 6.7519220954 -3.5918998335
218 1 14.9713553415 8.5185714551 -1.7843998782
219 1 14.6140312835 10.2829748343 0.0231000838
220 1 14.2581684747 12.0457187631 1.8306000262
221 1 16.7513179535 8.8689454928 -3.5918996766
222 1 16.3964069040 10.6345029832 -1.7843997052
223 1 16.0433309498 12.3977347944 0.0231002320
224 1 15.6933563476 14.1589110980 1.8306001752
225 1 18.1781422308 10.9845228119 -3.5918995373
226 1 17.8273571031 12.7486627027 -1.7843995866
227 1 17.4786940069 14.5111692400 0.0231003561
228 1 17.1318649482 16.2732145229 1.8306003166
229 1 19.6092341420 13.0996480108 -3.5918994271
230 1 19.2606597568 14.8641460919 -1.7843994725
231 1 18.9124147734 16.6286840235 0.0231004857
232 1 18.5636451283 18.3943719240 1.8306004675
233 1 21.0393460305 15.2178991521 -3.5918993244
234 1 20.6895348145 16.9847954420 -1.7843993542
235 1 22.4641149823 17.3411422142 -3.5918992141
236 1 1.8919816817 -17.8946389186 -3.5919017758
237 1 1.3652744732 -16.1073345996 -1.7844018958
238 1 0.9973420502 -14.4926359741 0.0230980140
239 1 0.8941151260 -12.7517296550 1.8305979614
240 1 3.2529695776 -15.8498786358 -3.5919016220
241 1 2.9583861799 -14.1595347512 -1.7844016499
242 1 2.6805675074 -12.4498156883 0.0230982919
243 1 2.4530124953 -10.6611435393 1.8305982415
244 1 4.7910034059 -13.8385115783 -3.5919013993
245 1 4.4881002899 -12.0976988391 -1.7844014413
246 1 4.1707449337 -10.3180156961 0.0230985205
247 1 3.8353170097 -8.4992015111 1.8305985106
248 1 6.2543940637 -11.7389705305 -3.5919011734
249 1 5.9093966704 -9.9560142806 -1.7844011853
250 1 5.5540316117 -8.1574520488 0.0230987967
251 1 5.1913591994 -6.3571474126 1.8305987594
252 1 7.6555720366 -9.5977878988 -3.5919009062
253 1 7.2980840380 -7.8089781305 -1.7844009137
254 1 6.9418693837 -6.0212516772 0.0230990634
255 1 6.5856525551 -4.2415642190 1.8305990152
256 1 9.0532131755 -7.4599978331 -3.5919006265
257 1 8.6992970382 -5.6767708577 -1.7844006644
258 1 8.3437659554 -3.8951879040 0.0230992938
259 1 7.9800252494 -2.1172098576 1.8305992277
260 1 10.4571815153 -5.3268729544 -3.5919004218
261 1 10.0994108391 -3.5438216361 -1.7844004677
262 1 9.7354639855 -1.7616587431 0.0230994737
263 1 9.3638817803 0.0167317550 1.8305993965
264 1 11.8552250394 -3.1903788513 -3.5919002262
265 1 11.4913480575 -1.4070625431 -1.7844003017
266 1 11.1226362973 0.3740170315 0.0230996362
267 1 10.7490510089 2.1512287308 1.8305995786
268 1 13.2491482762 -1.0531433171 -3.5919000594
269 1 12.8826165361 0.7285028068 -1.7844001096
270 1 12.5130488358 2.5071562590 0.0230998267
271 1 12.1416721635 4.2812390619 1.8305997697
272 1 14.6452188590 1.0809143751 -3.5918998914
273 1 14.2798253351 2.8590296332 -1.7843999564
274 1 13.9145633009 4.6329232557 0.0230999895
275 1 13.5509980148 6.4018301133 1.8305999505
276 1 16.0494308444 3.2086579250 -3.5918997398
277 1 15.6888342607 4.9821257344 -1.7843998040
278 1 15.3295419028 6.7519220954 0.0231001666
279 1 14.9713553416 8.5185714551 1.8306001218
280 1 17.4636416034 5.3305323764 -3.5918996057
281 1 17.1071327402 7.1009968159 -1.7843996288
282 1 16.7513179535 8.8689454928 0.0231003234
283 1 16.3964069040 10.6345029832 1.8306002948
284 1 18.8843073700 7.4495956847 -3.5918994751
285 1 18.5306563164 9.2181905385 -1.7843995175
286 1 18.1781422308 10.9845228118 0.0231004626
287 1 17.8273571030 12.7486627026 1.8306004134
288 1 20.3095299032 9.5670767312 -3.5918993892
289 1 19.9587793375 11.3341738665 -1.7843994075
290 1 19.6092341420 13.0996480108 0.0231005730
291 1 19.2606597568 14.8641460919 1.8306005276
292 1 21.7378644643 11.6842880151 -3.5918993051
293 1 21.3885804870 13.4512987298 -1.7843993185
294 1 21.0393460305 15.2178991522 0.0231006755
295 1 20.6895348147 16.9847954419 1.8306006458
296 1 23.1655334804 13.8037984934 -3.5918992343
297 1 22.8153242435 15.5722788062 -1.7843992136
298 1 22.4641149824 17.3411422142 0.0231007859
299 1 24.5892717672 15.9271042476 -3.5918991490
300 1 24.2369204927 17.6974989280 -1.7843991357
301 1 26.0085330068 18.0537669656 -3.5918991281
302 1 1.8919816815 -17.8946389187 0.0230982267
303 1 1.3652744737 -16.1073345959 1.8305981042
304 1 3.5940875491 -17.6375070981 -1.7844015785
305 1 3.2529695775 -15.8498786350 0.0230983777
306 1 2.9583861749 -14.1595347492 1.8305983482
307 1 5.3750137982 -17.3546578834 -3.5919013593
308 1 5.0804942701 -15.5870682681 -1.7844013754
309 1 4.7910034043 -13.8385115779 0.0230985985
310 1 4.4881002865 -12.0976988358 1.8305985587
311 1 6.8788405051 -15.2816691453 -3.5919011240
312 1 6.5772709399 -13.5129691522 -1.7844011513
313 1 6.2543940636 -11.7389705299 0.0230988252
314 1 5.9093966686 -9.9560142788 1.8305988139
315 1 8.3418914749 -13.1710313122 -3.5919008894
316 1 8.0063923642 -11.3858402828 -1.7844009007
317 1 7.6555720365 -9.5977878991 0.0230990935
318 1 7.2980840371 -7.8089781311 1.8305990869
319 1 9.7581004859 -11.0333469456 -3.5919006634
320 1 9.4073766711 -9.2456150080 -1.7844006528
321 1 9.0532131757 -7.4599978330 0.0230993731
322 1 8.6992970389 -5.6767708572 1.8305993353
323 1 11.1637126579 -8.8944843048 -3.5919004218
324 1 10.8113836361 -7.1101292863 -1.7844004144
325 1 10.4571815152 -5.3268729545 0.0230995784
326 1 10.0994108389 -3.5438216366 1.8305995324
327 1 12.5701185350 -6.7580498346 -3.5919001804
328 1 12.2145817519 -4.9742853751 -1.7844001998
329 1 11.8552250394 -3.1903788512 0.0230997736
330 1 11.4913480577 -1.4070625429 1.8305996983
331 1 13.9725344536 -4.6202385457 -3.5918999617
332 1 13.6124640360 -2.8364209400 -1.7844000045
333 1 13.2491482762 -1.0531433171 0.0230999407
334 1 12.8826165361 0.7285028070 1.8305998904
335 1 15.3718162674 -2.4824344299 -3.5918997859
336 1 15.0094426103 -0.7000062013 -1.7843998332
337 1 14.6452188591 1.0809143751 0.0231001085
338 1 14.2798253352 2.8590296332 1.8306000436
339 1 16.7726375871 -0.3476741190 -3.5918996370
340 1 16.4109593042 1.4317693211 -1.7843996923
341 1 16.0494308444 3.2086579250 0.0231002604
342 1 15.6888342607 4.9821257344 1.8306001960
343 1 18.1795263806 1.7817822524 -3.5918995276
344 1 17.8210657120 3.5574276581 -1.7843995660
345 1 17.4636416034 5.3305323763 0.0231003943
346 1 17.1071327403 7.1009968160 1.8306003712
347 1 19.5940248728 3.9061555883 -3.5918993951
348 1 19.2387571131 5.6788705251 -1.7843994407
349 1 18.8843073700 7.4495956848 0.0231005249
350 1 18.5306563163 9.2181905385 1.8306004826
351 1 21.0142096488 6.0274593465 -3.5918992978
352 1 20.6613961917 7.7981431791 -1.7843993439
353 1 20.3095299032 9.5670767312 0.0231006108
354 1 19.9587793375 11.3341738665 1.8306005925
355 1 22.4383746205 8.1470642304 -3.5918992804
356 1 22.0877032810 9.9163082158 -1.7843993069
357 1 21.7378644643 11.6842880152 0.0231006949
358 1 21.3885804869 13.4512987298 1.8306006816
359 1 23.8648948216 10.2663537897 -3.5918992320
360 1 23.5152148711 12.0352880221 -1.7843992371
361 1 23.1655334803 13.8037984934 0.0231007658
362 1 22.8153242434 15.5722788062 1.8306007864
363 1 25.2909179402 12.3872793446 -3.5918991802
364 1 24.9404999241 14.1570979149 -1.7843991632
365 1 24.5892717673 15.9271042476 0.0231008510
366 1 24.2369204928 17.6974989278 1.8306008643
367 1 26.7139527091 14.5110591519 -3.5918991170
368 1 26.3617888044 16.2822302277 -1.7843991081
369 1 26.0085330068 18.0537669656 0.0231008719
370 1 28.1333482188 16.6375517900 -3.5918990766
371 1 27.7793799442 18.4099105141 -1.7843990916
372 1 3.5940875497 -17.6375070972 1.8305984218
373 1 5.3750137983 -17.3546578835 0.0230986415
374 1 5.0804942708 -15.5870682697 1.8305986248
375 1 7.1781819092 -17.0475053803 -1.7844011114
376 1 6.8788405056 -15.2816691457 0.0230988763
377 1 6.5772709416 -13.5129691528 1.8305988493
378 1 8.9759472234 -16.7162453380 -3.5919008331
379 1 8.6620695321 -14.9487581990 -1.7844008534
380 1 8.3418914751 -13.1710313123 0.0230991112
381 1 8.0063923649 -11.3858402833 1.8305990993
382 1 10.4355975863 -14.5994272079 -3.5919005792
383 1 10.1012140452 -12.8196691793 -1.7844006089
384 1 9.7581004859 -11.0333469457 0.0230993369
385 1 9.4073766713 -9.2456150082 1.8305993473
386 1 11.8615322914 -12.4635257198 -3.5919003552
387 1 11.5141425553 -10.6797563566 -1.7844004061
388 1 11.1637126579 -8.8944843047 0.0230995781
389 1 10.8113836361 -7.1101292863 1.8305995856
390 1 13.2743101048 -10.3243201254 -3.5919001708
391 1 12.9229925354 -8.5415423815 -1.7844001910
392 1 12.5701185349 -6.7580498346 0.0230998195
393 1 12.2145817517 -4.9742853752 1.8305998002
394 1 14.6840705992 -8.1861984578 -3.5918999621
395 1 14.3295190873 -6.4037302968 -1.7843999516
396 1 13.9725344536 -4.6202385457 0.0231000383
397 1 13.6124640360 -2.8364209399 1.8305999955
398 1 16.0901993561 -6.0478051526 -3.5918997576
399 1 15.7320693950 -4.2653381807 -1.7843997627
400 1 15.3718162674 -2.4824344300 0.0231002140
401 1 15.0094426102 -0.7000062015 1.8306001668
402 1 17.4937659840 -3.9100165122 -3.5918996037
403 1 17.1337240914 -2.1286052971 -1.7843996235
404 1 16.7726375871 -0.3476741190 0.0231003630
405 1 16.4109593043 1.4317693211 1.8306003077
406 1 18.8983777705 -1.7750392180 -3.5918994785
407 1 18.5387866416 0.0040487034 -1.7843994936
408 1 18.1795263806 1.7817822524 0.0231004724
409 1 17.8210657120 3.5574276582 1.8306004340
410 1 20.3075408608 0.3554829125 -3.5918993648
411 1 19.9502728193 2.1316022030 -1.7843993874
412 1 19.5940248727 3.9061555883 0.0231006050
413 1 19.2387571131 5.6788705253 1.8306005593
414 1 21.7226017167 2.4816332567 -3.5918992455
415 1 21.3679176002 4.2552218674 -1.7843992488
416 1 21.0142096488 6.0274593466 0.0231007022
417 1 20.6613961918 7.7981431789 1.8306006561
418 1 23.1425199270 4.6047897814 -3.5918991616
419 1 22.7899708954 6.3765175677 -1.7843992171
420 1 22.4383746205 8.1470642304 0.0231007196
421 1 22.0877032809 9.9163082158 1.8306006930
422 1 24.5658685477 6.7262405116 -3.5918991741
423 1 24.2150153587 8.4967130718 -1.7843992263
424 1 23.8648948216 10.2663537897 0.0231007681
425 1 23.5152148711 12.0352880220 1.8306007629
426 1 25.9910762890 8.8472997189 -3.5918991552
427 1 25.6409591214 10.6174180978 -1.7843991630
428 1 25.2909179402 12.3872793445 0.0231008199
429 1 24.9404999241 14.1570979148 1.8306008368
430 1 27.4159122384 10.9695018595 -3.5918991218
431 1 27.0652216936 12.7401848987 -1.7843991134
432 1 26.7139527091 14.5110591519 0.0231008830
433 1 26.3617888045 16.2822302277 1.8306008919
434 1 28.8384254029 13.0938512548 -3.5918990546
435 1 28.4863210310 14.8655312332 -1.7843990696
436 1 28.1333482189 16.6375517901 0.0231009234
437 1 27.7793799443 18.4099105141 1.8306009084
438 1 30.2579557712 15.2203755102 -3.5918990729
439 1 29.9043072542 16.9929885351 -1.7843990730
440 1 31.6749325771 17.3484715281 -3.5918990965
441 1 7.1781819087 -17.0475053802 1.8305988885
442 1 8.9759472232 -16.7162453379 0.0230991666
443 1 8.6620695318 -14.9487581987 1.8305991465
444 1 11.0915332005 -18.1323377523 -3.5919004743
445 1 10.7638828263 -16.3698356308 -1.7844005411
446 1 10.4355975862 -14.5994272079 0.0230994206
447 1 10.1012140448 -12.8196691793 1.8305993911
448 1 12.5436570951 -16.0147283157 -3.5919002481
449 1 12.2047483267 -14.2425587808 -1.7844002980
450 1 11.8615322913 -12.4635257197 0.0230996446
451 1 11.5141425552 -10.6797563566 1.8305995940
452 1 13.9727274564 -13.8826959897 -3.5919000426
453 1 13.6244057742 -12.1052215424 -1.7844001172
454 1 13.2743101048 -10.3243201253 0.0230998292
455 1 12.9229925355 -8.5415423814 1.8305998090
456 1 15.3894348674 -11.7458234094 -3.5918998916
457 1 15.0371540095 -9.9670717291 -1.7843999219
458 1 14.6840705992 -8.1861984578 0.0231000379
459 1 14.3295190872 -6.4037302968 1.8306000484
460 1 16.8015468404 -9.6084787962 -3.5918997157
461 1 16.4465115130 -7.8290388299 -1.7843997356
462 1 16.0901993561 -6.0478051526 0.0231002424
463 1 15.7320693950 -4.2653381807 1.8306002373
464 1 18.2102660716 -7.4709077754 -3.5918995821
465 1 17.8525976121 -5.6910242535 -1.7843995971
466 1 17.4937659840 -3.9100165122 0.0231003964
467 1 17.1337240913 -2.1286052971 1.8306003765
468 1 19.6169068433 -5.3340162227 -3.5918994685
469 1 19.2578509314 -3.5546500393 -1.7843994720
470 1 18.8983777705 -1.7750392180 0.0231005214
471 1 18.5387866417 0.0040487034 1.8306005064
472 1 21.0242969648 -3.1995127999 -3.5918993539
473 1 20.6656529234 -1.4217481974 -1.7843993538
474 1 20.3075408608 0.3554829125 0.0231006351
475 1 19.9502728192 2.1316022029 1.8306006126
476 1 22.4351718604 -1.0686654583 -3.5918992452
477 1 22.0783582716 0.7069104872 -1.7843992414
478 1 21.7226017167 2.4816332567 0.0231007545
479 1 21.3679176001 4.2552218674 1.8306007512
480 1 23.8507080191 1.0584994613 -3.5918991483
481 1 23.4960739766 2.8320575531 -1.7843991472
482 1 23.1425199270 4.6047897813 0.0231008384
483 1 22.7899708954 6.3765175676 1.8306007829
484 1 25.2703556900 3.1829386116 -3.5918990981
485 1 24.9176172049 4.9549506073 -1.7843991137
486 1 24.5658685476 6.7262405115 0.0231008258
487 1 24.2150153586 8.4967130718 1.8306007738
488 1 26.6929547905 5.3057718856 -3.5918990925
489 1 26.3416516093 7.0767730320 -1.7843991184
490 1 25.9910762891 8.8472997189 0.0231008448
491 1 25.6409591213 10.6174180978 1.8306008370
492 1 28.1170874442 7.4281755175 -3.5918990797
493 1 27.7664074421 9.1988767642 -1.7843991063
494 1 27.4159122385 10.9695018595 0.0231008781
495 1 27.0652216936 12.7401848986 1.8306008866
496 1 29.5409713009 9.5513750472 -3.5918990599
497 1 29.1898794333 11.3224868427 -1.7843990554
498 1 28.8384254029 13.0938512547 0.0231009454
499 1 28.4863210308 14.8655312333 1.8306009303
500 1 30.9630311868 11.6762075977 -3.5918990621
501 1 30.6108128976 13.4481095127 -1.7843990542
502 1 30.2579557711 15.2203755103 0.0231009271
503 1 29.9043072542 16.9929885350 1.8306009271
504 1 32.3826305235 13.8027993520 -3.5918991042
505 1 32.0291341224 15.5754672091 -1.7843990967
506 1 31.6749325771 17.3484715281 0.0231009034
507 1 33.8000710761 15.9306931001 -3.5918991219
508 1 33.4454141851 17.7039428498 -1.7843991279
509 1 35.2158667304 18.0593674200 -3.5918991639
510 1 11.0915332006 -18.1323377523 0.0230995257
511 1 10.7638828264 -16.3698356310 1.8305994589
512 1 12.8799405150 -17.7800977136 -1.7844001767
513 1 12.5436570952 -16.0147283157 0.0230997519
514 1 12.2047483267 -14.2425587809 1.8305997021
515 1 14.6618289293 -17.4231313730 -3.5918999252
516 1 14.3185275189 -15.6554748045 -1.7843999775
517 1 13.9727274564 -13.8826959898 0.0230999574
518 1 13.6244057741 -12.1052215424 1.8305998828
519 1 16.0909354318 -15.2946772365 -3.5918997660
520 1 15.7408761974 -13.5218844863 -1.7843998361
521 1 15.3894348674 -11.7458234095 0.0231001084
522 1 15.0371540095 -9.9670717291 1.8306000781
523 1 17.5094239109 -13.1609391100 -3.5918996493
524 1 17.1557997649 -11.3858308158 -1.7843996951
525 1 16.8015468404 -9.6084787962 0.0231002843
526 1 16.4465115130 -7.8290388298 1.8306002644
527 1 18.9228993211 -11.0256304197 -3.5918995406
528 1 18.5669592722 -9.2491832801 -1.7843995629
529 1 18.2102660716 -7.4709077754 0.0231004179
530 1 17.8525976122 -5.6910242535 1.8306004029
531 1 20.3332433270 -8.8897863192 -3.5918994421
532 1 19.9753901922 -7.1125293610 -1.7843994674
533 1 19.6169068432 -5.3340162227 0.0231005314
534 1 19.2578509313 -3.5546500393 1.8306005280
535 1 21.7419202662 -6.7544184383 -3.5918993484
536 1 21.3831453012 -4.9772297921 -1.7843993639
537 1 21.0242969648 -3.1995127999 0.0231006462
538 1 20.6656529235 -1.4217481974 1.8306006462
539 1 23.1512006325 -4.6209291387 -3.5918992530
540 1 22.7928766413 -2.8447395331 -1.7843992497
541 1 22.4351718604 -1.0686654583 0.0231007549
542 1 22.0783582716 0.7069104872 1.8306007586
543 1 24.5632340139 -2.4903493587 -3.5918991455
544 1 24.2064531168 -0.7157032232 -1.7843991609
545 1 23.8507080191 1.0584994612 0.0231008516
546 1 23.4960739765 2.8320575532 1.8306008528
547 1 25.9790347708 -0.3627915531 -3.5918990931
548 1 25.6241505464 1.4103214285 -1.7843990950
549 1 25.2703556900 3.1829386116 0.0231009020
550 1 24.9176172048 4.9549506074 1.8306008864
551 1 27.3983287683 1.7624018808 -3.5918990376
552 1 27.0451505460 3.5343012571 -1.7843990655
553 1 26.6929547906 5.3057718857 0.0231009075
554 1 26.3416516093 7.0767730320 1.8306008816
555 1 28.8201768385 3.8861624850 -3.5918990607
556 1 28.4682694977 5.6572920991 -1.7843990777
557 1 28.1170874441 7.4281755175 0.0231009202
558 1 27.7664074419 9.1988767642 1.8306008938
559 1 30.2433423107 6.0095053148 -3.5918990812
560 1 29.8920225475 7.7804188276 -1.7843990729
561 1 29.5409713008 9.5513750472 0.0231009401
562 1 29.1898794335 11.3224868426 1.8306009446
563 1 31.6663936513 8.1334055101 -3.5918990725
564 1 31.3148122823 9.9046574195 -1.7843990648
565 1 30.9630311868 11.6762075976 0.0231009378
566 1 30.6108128976 13.4481095128 1.8306009458
567 1 33.0880131838 10.2585683164 -3.5918990995
568 1 32.7355414616 12.0304954796 -1.7843991073
569 1 32.3826305235 13.8027993520 0.0231008957
570 1 32.0291341224 15.5754672092 1.8306009033
571 1 34.5075786912 12.3851934065 -3.5918991188
572 1 34.1540919706 14.1577706943 -1.7843991182
573 1 33.8000710761 15.9306931001 0.0231008782
574 1 33.4454141852 17.7039428498 1.8306008721
575 1 35.9253817990 14.5128811327 -3.5918991338
576 1 35.5709145407 16.2859603454 -1.7843991568
577 1 35.2158667304 18.0593674200 0.0231008361
578 1 37.3417216018 16.6412230327 -3.5918991831
579 1 36.9863394171 18.4147436967 -1.7843991954
580 1 12.8799405149 -17.7800977136 1.8305998233
581 1 14.6618289293 -17.4231313730 0.0231000747
582 1 14.3185275188 -15.6554748044 1.8306000225
583 1 16.4391742781 -17.0638419640 -1.7843997166
584 1 16.0909354318 -15.2946772365 0.0231002339
585 1 15.7408761973 -13.5218844861 1.8306001640
586 1 18.2136510121 -16.7038315626 -3.5918995452
587 1 17.8621761017 -14.9336505717 -1.7843995796
588 1 17.5094239109 -13.1609391099 0.0231003508
589 1 17.1557997649 -11.3858308157 1.8306003049
590 1 19.6327678389 -14.5729805972 -3.5918994334
591 1 19.2782001532 -12.8002173132 -1.7843994870
592 1 18.9228993211 -11.0256304197 0.0231004593
593 1 18.5669592722 -9.2491832802 1.8306004371
594 1 21.0470363263 -12.4399422649 -3.5918993634
595 1 20.6904617569 -10.6655963454 -1.7843994197
596 1 20.3332433270 -8.8897863191 0.0231005580
597 1 19.9753901923 -7.1125293609 1.8306005327
598 1 22.4584403723 -10.3060497824 -3.5918992685
599 1 22.1004062538 -8.5307488713 -1.7843993124
600 1 21.7419202662 -6.7544184384 0.0231006517
601 1 21.3831453012 -4.9772297921 1.8306006361
602 1 23.8684849060 -8.1723706413 -3.5918991822
603 1 23.5098350779 -6.3968912814 -1.7843992306
604 1 23.1512006325 -4.6209291387 0.0231007472
605 1 22.7928766415 -2.8447395331 1.8306007503
606 1 25.2790456919 -6.0400968337 -3.5918990926
607 1 24.9208571727 -4.2652188677 -1.7843991344
608 1 24.5632340140 -2.4903493588 0.0231008546
609 1 24.2064531169 -0.7157032232 1.8306008391
610 1 26.6918357426 -3.9100900651 -3.5918990365
611 1 26.3349731648 -2.1362977082 -1.7843990610
612 1 25.9790347708 -0.3627915530 0.0231009069
613 1 25.6241505465 1.4103214285 1.8306009050
614 1 28.1077257820 -1.7825166293 -3.5918990151
615 1 27.7525261979 -0.0098822804 -1.7843990377
616 1 27.3983287683 1.7624018808 0.0231009622
617 1 27.0451505461 3.5343012571 1.8306009345
618 1 29.5266072568 0.3430641292 -3.5918990330
619 1 29.1729383162 2.1147577971 -1.7843990430
620 1 28.8201768385 3.8861624850 0.0231009393
621 1 28.4682694977 5.6572920990 1.8306009223
622 1 30.9477131320 2.4674107201 -3.5918990441
623 1 30.5951833680 4.2385296174 -1.7843990660
624 1 30.2433423106 6.0095053148 0.0231009188
625 1 29.8920225473 7.7804188275 1.8306009270
626 1 32.3699793382 4.5913877436 -3.5918990677
627 1 32.0180329492 6.3623561326 -1.7843990681
628 1 31.6663936513 8.1334055101 0.0231009275
629 1 31.3148122824 9.9046574196 1.8306009353
630 1 33.7922818647 6.7157495802 -3.5918990781
631 1 33.4402019375 8.4870056288 -1.7843990940
632 1 33.0880131837 10.2585683164 0.0231009004
633 1 32.7355414616 12.0304954798 1.8306008927
634 1 35.2134722730 8.8410952142 -3.5918991229
635 1 34.8606673468 10.6129653951 -1.7843991198
636 1 34.5075786912 12.3851934066 0.0231008811