ITEM: TIMESTEP
0
ITEM: NUMBER OF ATOMS
2504
ITEM: BOX BOUNDS xy xz yz mm pp pp
-5.5398871900000003e+01 5.5398871900000003e+01 0.0000000000000000e+00
-1.8432957300000002e+01 1.8432957300000002e+01 0.0000000000000000e+00
-3.6150000000000002e+00 3.6150000000000002e+00 0.0000000000000000e+00
ITEM: ATOMS id type x y z c_csym c_energy
1 1 0.354481 16.6606 -2.7075 7.05035 22.4732
2 1 7.959e-07 18.433 -0.9 10.416 -2.59347
3 1 1.06344 13.1158 -2.7075 5.30472 -3.39222
4 1 0.70896 14.8882 -0.9 4.53723 -1.0833
5 1 0.354481 16.6606 0.9075 7.05035 22.4732
6 1 7.959e-07 18.433 2.715 10.416 -2.59347
7 1 2.48136 15.2426 -2.7075 6e-20 -3.60713
8 1 2.12688 17.015 -0.9 4.47019e-11 -3.63614
9 1 3.89928 17.3695 -2.7075 5.96053e-11 -3.5438
10 1 0.35448 7.44408 -2.7075 7.05035 22.4732
11 1 3.98e-07 9.21648 -0.9 10.416 -2.59347
12 1 1.7724 9.57096 -2.7075 1.31262 -3.52098
13 1 1.41792 11.3434 -0.9 4.97023 -3.38483
14 1 1.06344 13.1158 0.9075 5.30472 -3.39222
15 1 0.70896 14.8882 2.715 4.53723 -1.0833
16 1 3.19032 11.6978 -2.7075 3.99979e-20 -3.51122
17 1 2.83584 13.4702 -0.9 7.00217e-20 -3.52942
18 1 2.48136 15.2426 0.9075 6e-20 -3.60713
19 1 2.12688 17.015 2.715 4.47019e-11 -3.63614
20 1 4.60824 13.8247 -2.7075 1.19983e-19 -3.54022
21 1 4.25376 15.5971 -0.9 7.9995e-20 -3.53958
22 1 3.89928 17.3695 0.9075 5.96053e-11 -3.5438
23 1 6.02616 15.9516 -2.7075 6.99911e-20 -3.54022
24 1 5.67168 17.724 -0.9 5.96071e-11 -3.54022
25 1 7.44408 18.0785 -2.7075 5.96075e-11 -3.54022
26 1 1.06344 3.89928 -2.7075 5.30472 -3.39222
27 1 0.70896 5.67168 -0.9 4.53723 -1.08329
28 1 0.35448 7.44408 0.9075 7.05035 22.4732
29 1 3.98e-07 9.21648 2.715 10.416 -2.59347
30 1 2.48136 6.02616 -2.7075 6.99918e-20 -3.60714
31 1 2.12688 7.79856 -0.9 3.99922e-20 -3.63614
32 1 1.7724 9.57096 0.9075 1.31262 -3.52098
33 1 1.41792 11.3434 2.715 4.97023 -3.38483
34 1 3.89928 8.15304 -2.7075 8.99869e-20 -3.5438
35 1 3.5448 9.92544 -0.9 3.00018e-20 -3.53429
36 1 3.19032 11.6978 0.9075 3.99979e-20 -3.51122
37 1 2.83584 13.4702 2.715 7.00217e-20 -3.52942
38 1 5.3172 10.2799 -2.7075 2e-20 -3.54022
39 1 4.96272 12.0523 -0.9 3.99972e-20 -3.54022
40 1 4.60824 13.8247 0.9075 1.19983e-19 -3.54022
41 1 4.25376 15.5971 2.715 7.9995e-20 -3.53958
42 1 6.73512 12.4068 -2.7075 6.99812e-20 -3.54022
43 1 6.38064 14.1792 -0.9 5.99979e-20 -3.54022
44 1 6.02616 15.9516 0.9075 6.99911e-20 -3.54022
45 1 5.67168 17.724 2.715 5.96071e-11 -3.54022
46 1 8.15304 14.5337 -2.7075 1.99979e-20 -3.54022
47 1 7.79856 16.3061 -0.9 8.001e-20 -3.54022
48 1 7.44408 18.0785 0.9075 5.96075e-11 -3.54022
49 1 9.57096 16.6606 -2.7075 1.49006e-11 -3.54022
50 1 9.21648 18.433 -0.9 8.94068e-11 -3.54022
51 1 0.35448 -1.7724 -2.7075 7.05035 22.4733
52 1 0 0 -0.9 10.416 -2.59346
53 1 1.7724 0.35448 -2.7075 1.31262 -3.52098
54 1 1.41792 2.12688 -0.9 6.47811 -3.38483
55 1 1.06344 3.89928 0.9075 5.30472 -3.39222
56 1 0.70896 5.67168 2.715 4.53723 -1.08329
57 1 3.19032 2.48136 -2.7075 3.99922e-20 -3.51122
58 1 2.83584 4.25376 -0.9 3.99936e-20 -3.52942
59 1 2.48136 6.02616 0.9075 6.99918e-20 -3.60714
60 1 2.12688 7.79856 2.715 3.99922e-20 -3.63614
61 1 4.60824 4.60824 -2.7075 3.99993e-20 -3.54022
62 1 4.25376 6.38064 -0.9 1.19972e-19 -3.53958
63 1 3.89928 8.15304 0.9075 8.99869e-20 -3.5438
64 1 3.5448 9.92544 2.715 3.00018e-20 -3.53429
65 1 6.02616 6.73512 -2.7075 6.00029e-20 -3.54022
66 1 5.67168 8.50752 -0.9 6.99982e-20 -3.54022
67 1 5.3172 10.2799 0.9075 2e-20 -3.54022
68 1 4.96272 12.0523 2.715 3.99972e-20 -3.54022
69 1 7.44408 8.862 -2.7075 8.00199e-20 -3.54022
70 1 7.0896 10.6344 -0.9 1.09985e-19 -3.54022
71 1 6.73512 12.4068 0.9075 6.99812e-20 -3.54022
72 1 6.38064 14.1792 2.715 5.99979e-20 -3.54022
73 1 8.862 10.9889 -2.7075 8.99911e-20 -3.54022
74 1 8.50752 12.7613 -0.9 4e-20 -3.54022
75 1 8.15304 14.5337 0.9075 1.99979e-20 -3.54022
76 1 7.79856 16.3061 2.715 8.001e-20 -3.54022
77 1 10.2799 13.1158 -2.7075 7.00039e-20 -3.54022
78 1 9.92544 14.8882 -0.9 5.99943e-20 -3.54022
79 1 9.57096 16.6606 0.9075 1.49006e-11 -3.54022
80 1 9.21648 18.433 2.715 8.94068e-11 -3.54022
81 1 11.6978 15.2426 -2.7075 8.00043e-20 -3.54022
82 1 11.3434 17.015 -0.9 4.4704e-11 -3.54022
83 1 13.1158 17.3695 -2.7075 5.96071e-11 -3.54022
84 1 1.06344 -5.3172 -2.7075 5.30472 -3.39222
85 1 0.70896 -3.5448 -0.9 4.53723 -1.08328
86 1 0.35448 -1.7724 0.9075 7.05035 22.4733
87 1 0 0 2.715 10.416 -2.59346
88 1 2.48136 -3.19032 -2.7075 3.9994e-20 -3.60714
89 1 2.12688 -1.41792 -0.9 6.99943e-20 -3.63614
90 1 1.7724 0.35448 0.9075 1.31262 -3.52098
91 1 1.41792 2.12688 2.715 6.47811 -3.38483
92 1 3.89928 -1.06344 -2.7075 1.09974e-19 -3.5438
93 1 3.5448 0.70896 -0.9 1.10011e-19 -3.53429
94 1 3.19032 2.48136 0.9075 3.99922e-20 -3.51122
95 1 2.83584 4.25376 2.715 3.99936e-20 -3.52942
96 1 5.3172 1.06344 -2.7075 7.00039e-20 -3.54022
97 1 4.96272 2.83584 -0.9 4.0005e-20 -3.54022
98 1 4.60824 4.60824 0.9075 3.99993e-20 -3.54022
99 1 4.25376 6.38064 2.715 1.19972e-19 -3.53958
100 1 6.73512 3.19032 -2.7075 1.20013e-19 -3.54022
101 1 6.38064 4.96272 -0.9 7.00103e-20 -3.54022
102 1 6.02616 6.73512 0.9075 6.00029e-20 -3.54022
103 1 5.67168 8.50752 2.715 6.99982e-20 -3.54022
104 1 8.15304 5.3172 -2.7075 3.99908e-20 -3.54022
105 1 7.79856 7.0896 -0.9 1.99972e-20 -3.54022
106 1 7.44408 8.862 0.9075 8.00199e-20 -3.54022
107 1 7.0896 10.6344 2.715 1.09985e-19 -3.54022
108 1 9.57096 7.44408 -2.7075 6.00114e-20 -3.54022
109 1 9.21648 9.21648 -0.9 7.00046e-20 -3.54022
110 1 8.862 10.9889 0.9075 8.99911e-20 -3.54022
111 1 8.50752 12.7613 2.715 4e-20 -3.54022
112 1 10.9889 9.57096 -2.7075 1.99993e-20 -3.54022
113 1 10.6344 11.3434 -0.9 3.00011e-20 -3.54022
114 1 10.2799 13.1158 0.9075 7.00039e-20 -3.54022
115 1 9.92544 14.8882 2.715 5.99943e-20 -3.54022
116 1 12.4068 11.6978 -2.7075 4.00021e-20 -3.54022
117 1 12.0523 13.4702 -0.9 1.20002e-19 -3.54022
118 1 11.6978 15.2426 0.9075 8.00043e-20 -3.54022
119 1 11.3434 17.015 2.715 4.4704e-11 -3.54022
120 1 13.8247 13.8247 -2.7075 6.00021e-20 -3.54022
121 1 13.4702 15.5971 -0.9 6.99854e-20 -3.54022
122 1 13.1158 17.3695 0.9075 5.96071e-11 -3.54022
123 1 15.2426 15.9516 -2.7075 7.99972e-20 -3.54022
124 1 14.8882 17.724 -0.9 5.96075e-11 -3.54022
125 1 16.6606 18.0785 -2.7075 5.96049e-11 -3.54022
126 1 0.354479 -10.9889 -2.7075 7.05035 22.4734
127 1 -3.98e-07 -9.21648 -0.9 10.416 -2.59346
128 1 1.7724 -8.862 -2.7075 1.31262 -3.52098
129 1 1.41792 -7.0896 -0.9 6.4781 -3.38483
130 1 1.06344 -5.3172 0.9075 5.30472 -3.39222
131 1 0.70896 -3.5448 2.715 4.53723 -1.08328
132 1 3.19032 -6.73512 -2.7075 1.19977e-19 -3.51122
133 1 2.83584 -4.96272 -0.9 4.00025e-20 -3.52942
134 1 2.48136 -3.19032 0.9075 3.9994e-20 -3.60714
135 1 2.12688 -1.41792 2.715 6.99943e-20 -3.63614
136 1 4.60824 -4.60824 -2.7075 4.0011e-20 -3.54022
137 1 4.25376 -2.83584 -0.9 4.00036e-20 -3.53958
138 1 3.89928 -1.06344 0.9075 1.09974e-19 -3.5438
139 1 3.5448 0.70896 2.715 1.10011e-19 -3.53429
140 1 6.02616 -2.48136 -2.7075 7.00004e-20 -3.54022
141 1 5.67168 -0.70896 -0.9 4.00011e-20 -3.54022
142 1 5.3172 1.06344 0.9075 7.00039e-20 -3.54022
143 1 4.96272 2.83584 2.715 4.0005e-20 -3.54022
144 1 7.44408 -0.35448 -2.7075 9.99929e-21 -3.54022
145 1 7.0896 1.41792 -0.9 6.00043e-20 -3.54022
146 1 6.73512 3.19032 0.9075 1.20013e-19 -3.54022
147 1 6.38064 4.96272 2.715 7.00103e-20 -3.54022
148 1 8.862 1.7724 -2.7075 7.00039e-20 -3.54022
149 1 8.50752 3.5448 -0.9 9.00025e-20 -3.54022
150 1 8.15304 5.3172 0.9075 3.99908e-20 -3.54022
151 1 7.79856 7.0896 2.715 1.99972e-20 -3.54022
152 1 10.2799 3.89928 -2.7075 2.99997e-20 -3.54022
153 1 9.92544 5.67168 -0.9 6.99869e-20 -3.54022
154 1 9.57096 7.44408 0.9075 6.00114e-20 -3.54022
155 1 9.21648 9.21648 2.715 7.00046e-20 -3.54022
156 1 11.6978 6.02616 -2.7075 1.1e-19 -3.54022
157 1 11.3434 7.79856 -0.9 1.00014e-19 -3.54022
158 1 10.9889 9.57096 0.9075 1.99993e-20 -3.54022
159 1 10.6344 11.3434 2.715 3.00011e-20 -3.54022
160 1 13.1158 8.15304 -2.7075 7.00004e-20 -3.54022
161 1 12.7613 9.92544 -0.9 4.00007e-20 -3.54022
162 1 12.4068 11.6978 0.9075 4.00021e-20 -3.54022
163 1 12.0523 13.4702 2.715 1.20002e-19 -3.54022
164 1 14.5337 10.2799 -2.7075 1.20009e-19 -3.54022
165 1 14.1792 12.0523 -0.9 7.00068e-20 -3.54022
166 1 13.8247 13.8247 0.9075 6.00021e-20 -3.54022
167 1 13.4702 15.5971 2.715 6.99854e-20 -3.54022
168 1 15.9516 12.4068 -2.7075 3.99908e-20 -3.54022
169 1 15.5971 14.1792 -0.9 1.99986e-20 -3.54022
170 1 15.2426 15.9516 0.9075 7.99972e-20 -3.54022
171 1 14.8882 17.724 2.715 5.96075e-11 -3.54022
172 1 17.3695 14.5337 -2.7075 6.99911e-20 -3.54022
173 1 17.015 16.3061 -0.9 6.99982e-20 -3.54022
174 1 16.6606 18.0785 0.9075 5.96049e-11 -3.54022
175 1 18.7874 16.6606 -2.7075 1.49013e-11 -3.54022
176 1 18.433 18.433 -0.9 8.94101e-11 -3.54022
177 1 1.06344 -14.5337 -2.7075 5.30472 -3.39222
178 1 0.708959 -12.7613 -0.9 4.53723 -1.08327
179 1 0.354479 -10.9889 0.9075 7.05035 22.4734
180 1 -3.98e-07 -9.21648 2.715 10.416 -2.59346
181 1 2.48136 -12.4068 -2.7075 3.99979e-20 -3.60714
182 1 2.12688 -10.6344 -0.9 1.99943e-20 -3.63614
183 1 1.7724 -8.862 0.9075 1.31262 -3.52098
184 1 1.41792 -7.0896 2.715 6.4781 -3.38483
185 1 3.89928 -10.2799 -2.7075 3.00011e-20 -3.5438
186 1 3.5448 -8.50752 -0.9 8.99933e-20 -3.53429
187 1 3.19032 -6.73512 0.9075 1.19977e-19 -3.51122
188 1 2.83584 -4.96272 2.715 4.00025e-20 -3.52942
189 1 5.3172 -8.15304 -2.7075 3.99979e-20 -3.54022
190 1 4.96272 -6.38064 -0.9 6.9995e-20 -3.54022
191 1 4.60824 -4.60824 0.9075 4.0011e-20 -3.54022
192 1 4.25376 -2.83584 2.715 4.00036e-20 -3.53958
193 1 6.73512 -6.02616 -2.7075 6.00025e-20 -3.54022
194 1 6.38064 -4.25376 -0.9 1.19989e-19 -3.54022
195 1 6.02616 -2.48136 0.9075 7.00004e-20 -3.54022
196 1 5.67168 -0.70896 2.715 4.00011e-20 -3.54022
197 1 8.15304 -3.89928 -2.7075 8.99993e-20 -3.54022
198 1 7.79856 -2.12688 -0.9 3.99922e-20 -3.54022
199 1 7.44408 -0.35448 0.9075 9.99929e-21 -3.54022
200 1 7.0896 1.41792 2.715 6.00043e-20 -3.54022
201 1 9.57096 -1.7724 -2.7075 7.00089e-20 -3.54022
202 1 9.21648 -3.98e-07 -0.9 6.00007e-20 -3.54022
203 1 8.862 1.7724 0.9075 7.00039e-20 -3.54022
204 1 8.50752 3.5448 2.715 9.00025e-20 -3.54022
205 1 10.9889 0.354479 -2.7075 9.99851e-20 -3.54022
206 1 10.6344 2.12688 -0.9 2.00007e-20 -3.54022
207 1 10.2799 3.89928 0.9075 2.99997e-20 -3.54022
208 1 9.92544 5.67168 2.715 6.99869e-20 -3.54022
209 1 12.4068 2.48136 -2.7075 3.99929e-20 -3.54022
210 1 12.0523 4.25376 -0.9 3.99936e-20 -3.54022
211 1 11.6978 6.02616 0.9075 1.1e-19 -3.54022
212 1 11.3434 7.79856 2.715 1.00014e-19 -3.54022
213 1 13.8247 4.60824 -2.7075 7.00053e-20 -3.54022
214 1 13.4702 6.38064 -0.9 4.00036e-20 -3.54022
215 1 13.1158 8.15304 0.9075 7.00004e-20 -3.54022
216 1 12.7613 9.92544 2.715 4.00007e-20 -3.54022
217 1 15.2426 6.73512 -2.7075 1.00025e-20 -3.54022
218 1 14.8882 8.50752 -0.9 5.99972e-20 -3.54022
219 1 14.5337 10.2799 0.9075 1.20009e-19 -3.54022
220 1 14.1792 12.0523 2.715 7.00068e-20 -3.54022
221 1 16.6606 8.862 -2.7075 7.00053e-20 -3.54022
222 1 16.3061 10.6344 -0.9 9.00139e-20 -3.54022
223 1 15.9516 12.4068 0.9075 3.99908e-20 -3.54022
224 1 15.5971 14.1792 2.715 1.99986e-20 -3.54022
225 1 18.0785 10.9889 -2.7075 3.99936e-20 -3.54022
226 1 17.724 12.7613 -0.9 9.00061e-20 -3.54022
227 1 17.3695 14.5337 0.9075 6.99911e-20 -3.54022
228 1 17.015 16.3061 2.715 6.99982e-20 -3.54022
229 1 19.4964 13.1158 -2.7075 1.19982e-19 -3.54022
230 1 19.1419 14.8882 -0.9 6.00021e-20 -3.54022
231 1 18.7874 16.6606 0.9075 1.49013e-11 -3.54022
232 1 18.433 18.433 2.715 8.94101e-11 -3.54022
233 1 20.9143 15.2426 -2.7075 5.99936e-20 -3.54022
234 1 20.5598 17.015 -0.9 4.47061e-11 -3.54022
235 1 22.3322 17.3695 -2.7075 5.96075e-11 -3.54022
236 1 1.7724 -18.0785 -2.7075 1.31262 -3.52098
237 1 1.41792 -16.3061 -0.9 4.97023 -3.38483
238 1 1.06344 -14.5337 0.9075 5.30472 -3.39222
239 1 0.708959 -12.7613 2.715 4.53723 -1.08327
240 1 3.19032 -15.9516 -2.7075 8.99968e-20 -3.51122
241 1 2.83584 -14.1792 -0.9 1.19984e-19 -3.52942
242 1 2.48136 -12.4068 0.9075 3.99979e-20 -3.60714
243 1 2.12688 -10.6344 2.715 1.99943e-20 -3.63614
244 1 4.60824 -13.8247 -2.7075 6.99869e-20 -3.54022
245 1 4.25376 -12.0523 -0.9 3.99943e-20 -3.53958
246 1 3.89928 -10.2799 0.9075 3.00011e-20 -3.5438
247 1 3.5448 -8.50752 2.715 8.99933e-20 -3.53429
248 1 6.02616 -11.6978 -2.7075 1.1e-19 -3.54022
249 1 5.67168 -9.92544 -0.9 7.00018e-20 -3.54022
250 1 5.3172 -8.15304 0.9075 3.99979e-20 -3.54022
251 1 4.96272 -6.38064 2.715 6.9995e-20 -3.54022
252 1 7.44408 -9.57096 -2.7075 5.99922e-20 -3.54022
253 1 7.0896 -7.79856 -0.9 2.00007e-20 -3.54022
254 1 6.73512 -6.02616 0.9075 6.00025e-20 -3.54022
255 1 6.38064 -4.25376 2.715 1.19989e-19 -3.54022
256 1 8.862 -7.44408 -2.7075 7.99965e-20 -3.54022
257 1 8.50752 -5.67168 -0.9 6.99965e-20 -3.54022
258 1 8.15304 -3.89928 0.9075 8.99993e-20 -3.54022
259 1 7.79856 -2.12688 2.715 3.99922e-20 -3.54022
260 1 10.2799 -5.3172 -2.7075 1.99957e-20 -3.54022
261 1 9.92544 -3.5448 -0.9 2.99925e-20 -3.54022
262 1 9.57096 -1.7724 0.9075 7.00089e-20 -3.54022
263 1 9.21648 -3.98e-07 2.715 6.00007e-20 -3.54022
264 1 11.6978 -3.19032 -2.7075 4.00007e-20 -3.54022
265 1 11.3434 -1.41792 -0.9 1.09994e-19 -3.54022
266 1 10.9889 0.354479 0.9075 9.99851e-20 -3.54022
267 1 10.6344 2.12688 2.715 2.00007e-20 -3.54022
268 1 13.1158 -1.06344 -2.7075 4.00028e-20 -3.54022
269 1 12.7613 0.708959 -0.9 7.00103e-20 -3.54022
270 1 12.4068 2.48136 0.9075 3.99929e-20 -3.54022
271 1 12.0523 4.25376 2.715 3.99936e-20 -3.54022
272 1 14.5337 1.06344 -2.7075 6e-20 -3.54022
273 1 14.1792 2.83584 -0.9 1.20009e-19 -3.54022
274 1 13.8247 4.60824 0.9075 7.00053e-20 -3.54022
275 1 13.4702 6.38064 2.715 4.00036e-20 -3.54022
276 1 15.9516 3.19032 -2.7075 8.99982e-20 -3.54022
277 1 15.5971 4.96272 -0.9 4.00007e-20 -3.54022
278 1 15.2426 6.73512 0.9075 1.00025e-20 -3.54022
279 1 14.8882 8.50752 2.715 5.99972e-20 -3.54022
280 1 17.3695 5.3172 -2.7075 9.00082e-20 -3.54022
281 1 17.015 7.0896 -0.9 6.9994e-20 -3.54022
282 1 16.6606 8.862 0.9075 7.00053e-20 -3.54022
283 1 16.3061 10.6344 2.715 9.00139e-20 -3.54022
284 1 18.7874 7.44408 -2.7075 7.99894e-20 -3.54022
285 1 18.433 9.21648 -0.9 1.99979e-20 -3.54022
286 1 18.0785 10.9889 0.9075 3.99936e-20 -3.54022
287 1 17.724 12.7613 2.715 9.00061e-20 -3.54022
288 1 20.2054 9.57096 -2.7075 4.00029e-20 -3.54022
289 1 19.8509 11.3434 -0.9 5.99886e-20 -3.54022
290 1 19.4964 13.1158 0.9075 1.19982e-19 -3.54022
291 1 19.1419 14.8882 2.715 6.00021e-20 -3.54022
292 1 21.6233 11.6978 -2.7075 6.00036e-20 -3.54022
293 1 21.2688 13.4702 -0.9 4e-20 -3.54022
294 1 20.9143 15.2426 0.9075 5.99936e-20 -3.54022
295 1 20.5598 17.015 2.715 4.47061e-11 -3.54022
296 1 23.0412 13.8247 -2.7075 2.00007e-20 -3.54022
297 1 22.6867 15.5971 -0.9 7.99794e-20 -3.54022
298 1 22.3322 17.3695 0.9075 5.96075e-11 -3.54022
299 1 24.4591 15.9516 -2.7075 7.00068e-20 -3.54022
300 1 24.1046 17.724 -0.9 5.96056e-11 -3.54022
301 1 25.877 18.0785 -2.7075 5.96074e-11 -3.54022
302 1 1.7724 -18.0785 0.9075 1.31262 -3.52098
303 1 1.41792 -16.3061 2.715 4.97023 -3.38483
304 1 3.5448 -17.724 -0.9 5.96046e-11 -3.53429
305 1 3.19032 -15.9516 0.9075 8.99968e-20 -3.51122
306 1 2.83584 -14.1792 2.715 1.19984e-19 -3.52942
307 1 5.3172 -17.3695 -2.7075 5.96088e-11 -3.54022
308 1 4.96272 -15.5971 -0.9 3.99979e-20 -3.54022
309 1 4.60824 -13.8247 0.9075 6.99869e-20 -3.54022
310 1 4.25376 -12.0523 2.715 3.99943e-20 -3.53958
311 1 6.73512 -15.2426 -2.7075 9.99894e-21 -3.54022
312 1 6.38064 -13.4702 -0.9 3.99993e-20 -3.54022
313 1 6.02616 -11.6978 0.9075 1.1e-19 -3.54022
314 1 5.67168 -9.92544 2.715 7.00018e-20 -3.54022
315 1 8.15304 -13.1158 -2.7075 6.99954e-20 -3.54022
316 1 7.79856 -11.3434 -0.9 9.99894e-20 -3.54022
317 1 7.44408 -9.57096 0.9075 5.99922e-20 -3.54022
318 1 7.0896 -7.79856 2.715 2.00007e-20 -3.54022
319 1 9.57096 -10.9889 -2.7075 1.99986e-20 -3.54022
320 1 9.21648 -9.21648 -0.9 6.99989e-20 -3.54022
321 1 8.862 -7.44408 0.9075 7.99965e-20 -3.54022
322 1 8.50752 -5.67168 2.715 6.99965e-20 -3.54022
323 1 10.9889 -8.862 -2.7075 9.00032e-20 -3.54022
324 1 10.6344 -7.0896 -0.9 1.09993e-19 -3.54022
325 1 10.2799 -5.3172 0.9075 1.99957e-20 -3.54022
326 1 9.92544 -3.5448 2.715 2.99925e-20 -3.54022
327 1 12.4068 -6.73512 -2.7075 6.99851e-20 -3.54022
328 1 12.0523 -4.96272 -0.9 4.00007e-20 -3.54022
329 1 11.6978 -3.19032 0.9075 4.00007e-20 -3.54022
330 1 11.3434 -1.41792 2.715 1.09994e-19 -3.54022
331 1 13.8247 -4.60824 -2.7075 1.20001e-19 -3.54022
332 1 13.4702 -2.83584 -0.9 6.99972e-20 -3.54022
333 1 13.1158 -1.06344 0.9075 4.00028e-20 -3.54022
334 1 12.7613 0.708959 2.715 7.00103e-20 -3.54022
335 1 15.2426 -2.48136 -2.7075 5.99961e-20 -3.54022
336 1 14.8882 -0.70896 -0.9 1.99979e-20 -3.54022
337 1 14.5337 1.06344 0.9075 6e-20 -3.54022
338 1 14.1792 2.83584 2.715 1.20009e-19 -3.54022
339 1 16.6606 -0.354481 -2.7075 9.00068e-20 -3.54022
340 1 16.3061 1.41792 -0.9 7.00139e-20 -3.54022
341 1 15.9516 3.19032 0.9075 8.99982e-20 -3.54022
342 1 15.5971 4.96272 2.715 4.00007e-20 -3.54022
343 1 18.0785 1.7724 -2.7075 1.99979e-20 -3.54022
344 1 17.724 3.5448 -0.9 4.00007e-20 -3.54022
345 1 17.3695 5.3172 0.9075 9.00082e-20 -3.54022
346 1 17.015 7.0896 2.715 6.9994e-20 -3.54022
347 1 19.4964 3.89928 -2.7075 6.00078e-20 -3.54022
348 1 19.1419 5.67168 -0.9 1.10009e-19 -3.54022
349 1 18.7874 7.44408 0.9075 7.99894e-20 -3.54022
350 1 18.433 9.21648 2.715 1.99979e-20 -3.54022
351 1 20.9143 6.02616 -2.7075 2.00028e-20 -3.54022
352 1 20.5598 7.79856 -0.9 5.99851e-20 -3.54022
353 1 20.2054 9.57096 0.9075 4.00029e-20 -3.54022
354 1 19.8509 11.3434 2.715 5.99886e-20 -3.54022
355 1 22.3322 8.15304 -2.7075 6.00071e-20 -3.54022
356 1 21.9778 9.92544 -0.9 1.19994e-19 -3.54022
357 1 21.6233 11.6978 0.9075 6.00036e-20 -3.54022
358 1 21.2688 13.4702 2.715 4e-20 -3.54022
359 1 23.7502 10.2799 -2.7075 8.99954e-20 -3.54022
360 1 23.3957 12.0523 -0.9 4.00007e-20 -3.54022
361 1 23.0412 13.8247 0.9075 2.00007e-20 -3.54022
362 1 22.6867 15.5971 2.715 7.99794e-20 -3.54022
363 1 25.1681 12.4068 -2.7075 8.99997e-20 -3.54022
364 1 24.8136 14.1792 -0.9 7.00046e-20 -3.54022
365 1 24.4591 15.9516 0.9075 7.00068e-20 -3.54022
366 1 24.1046 17.724 2.715 5.96056e-11 -3.54022
367 1 26.586 14.5337 -2.7075 5.99943e-20 -3.54022
368 1 26.2315 16.3061 -0.9 1.00004e-20 -3.54022
369 1 25.877 18.0785 0.9075 5.96074e-11 -3.54022
370 1 28.0039 16.6606 -2.7075 1.4902e-11 -3.54022
371 1 27.6494 18.433 -0.9 8.94129e-11 -3.54022
372 1 3.5448 -17.724 2.715 5.96046e-11 -3.53429
373 1 5.3172 -17.3695 0.9075 5.96088e-11 -3.54022
374 1 4.96272 -15.5971 2.715 3.99979e-20 -3.54022
375 1 7.0896 -17.015 -0.9 5.96077e-11 -3.54022
376 1 6.73512 -15.2426 0.9075 9.99894e-21 -3.54022
377 1 6.38064 -13.4702 2.715 3.99993e-20 -3.54022
378 1 8.862 -16.6606 -2.7075 4.47027e-11 -3.54022
379 1 8.50752 -14.8882 -0.9 5.99936e-20 -3.54022
380 1 8.15304 -13.1158 0.9075 6.99954e-20 -3.54022
381 1 7.79856 -11.3434 2.715 9.99894e-20 -3.54022
382 1 10.2799 -14.5337 -2.7075 1.20004e-19 -3.54022
383 1 9.92544 -12.7613 -0.9 4.00014e-20 -3.54022
384 1 9.57096 -10.9889 0.9075 1.99986e-20 -3.54022
385 1 9.21648 -9.21648 2.715 6.99989e-20 -3.54022
386 1 11.6978 -12.4068 -2.7075 4.00014e-20 -3.54022
387 1 11.3434 -10.6344 -0.9 2.99996e-20 -3.54022
388 1 10.9889 -8.862 0.9075 9.00032e-20 -3.54022
389 1 10.6344 -7.0896 2.715 1.09993e-19 -3.54022
390 1 13.1158 -10.2799 -2.7075 7.00025e-20 -3.54022
391 1 12.7613 -8.50752 -0.9 4.00014e-20 -3.54022
392 1 12.4068 -6.73512 0.9075 6.99851e-20 -3.54022
393 1 12.0523 -4.96272 2.715 4.00007e-20 -3.54022
394 1 14.5337 -8.15304 -2.7075 2e-20 -3.54022
395 1 14.1792 -6.38064 -0.9 6.00014e-20 -3.54022
396 1 13.8247 -4.60824 0.9075 1.20001e-19 -3.54022
397 1 13.4702 -2.83584 2.715 6.99972e-20 -3.54022
398 1 15.9516 -6.02616 -2.7075 6.99982e-20 -3.54022
399 1 15.5971 -4.25376 -0.9 8.00014e-20 -3.54022
400 1 15.2426 -2.48136 0.9075 5.99961e-20 -3.54022
401 1 14.8882 -0.70896 2.715 1.99979e-20 -3.54022
402 1 17.3695 -3.89928 -2.7075 2.00007e-20 -3.54022
403 1 17.015 -2.12688 -0.9 8.9978e-20 -3.54022
404 1 16.6606 -0.354481 0.9075 9.00068e-20 -3.54022
405 1 16.3061 1.41792 2.715 7.00139e-20 -3.54022
406 1 18.7874 -1.7724 -2.7075 9.00178e-20 -3.54022
407 1 18.433 -7.959e-07 -0.9 9.00096e-20 -3.54022
408 1 18.0785 1.7724 0.9075 1.99979e-20 -3.54022
409 1 17.724 3.5448 2.715 4.00007e-20 -3.54022
410 1 20.2054 0.354479 -2.7075 5.99993e-20 -3.54022
411 1 19.8509 2.12688 -0.9 4.00007e-20 -3.54022
412 1 19.4964 3.89928 0.9075 6.00078e-20 -3.54022
413 1 19.1419 5.67168 2.715 1.10009e-19 -3.54022
414 1 21.6233 2.48136 -2.7075 1.20014e-19 -3.54022
415 1 21.2688 4.25376 -0.9 6.00014e-20 -3.54022
416 1 20.9143 6.02616 0.9075 2.00028e-20 -3.54022
417 1 20.5598 7.79856 2.715 5.99851e-20 -3.54022
418 1 23.0412 4.60824 -2.7075 3.9995e-20 -3.54022
419 1 22.6867 6.38064 -0.9 1.00004e-20 -3.54022
420 1 22.3322 8.15304 0.9075 6.00071e-20 -3.54022
421 1 21.9778 9.92544 2.715 1.19994e-19 -3.54022
422 1 24.4591 6.73512 -2.7075 7.00146e-20 -3.54022
423 1 24.1046 8.50752 -0.9 7.00139e-20 -3.54022
424 1 23.7502 10.2799 0.9075 8.99954e-20 -3.54022
425 1 23.3957 12.0523 2.715 4.00007e-20 -3.54022
426 1 25.877 8.862 -2.7075 1.99993e-20 -3.54022
427 1 25.5226 10.6344 -0.9 4.00007e-20 -3.54022
428 1 25.1681 12.4068 0.9075 8.99997e-20 -3.54022
429 1 24.8136 14.1792 2.715 7.00046e-20 -3.54022
430 1 27.295 10.9889 -2.7075 7.00053e-20 -3.54022
431 1 26.9405 12.7613 -0.9 1.20024e-19 -3.54022
432 1 26.586 14.5337 0.9075 5.99943e-20 -3.54022
433 1 26.2315 16.3061 2.715 1.00004e-20 -3.54022
434 1 28.7129 13.1158 -2.7075 3.99936e-20 -3.54022
435 1 28.3584 14.8882 -0.9 7.00117e-20 -3.54022
436 1 28.0039 16.6606 0.9075 1.4902e-11 -3.54022
437 1 27.6494 18.433 2.715 8.94129e-11 -3.54022
438 1 30.1308 15.2426 -2.7075 9.99965e-20 -3.54022
439 1 29.7763 17.015 -0.9 4.47009e-11 -3.54022
440 1 31.5487 17.3695 -2.7075 5.96056e-11 -3.54022
441 1 7.0896 -17.015 2.715 5.96077e-11 -3.54022
442 1 8.862 -16.6606 0.9075 4.47027e-11 -3.54022
443 1 8.50752 -14.8882 2.715 5.99936e-20 -3.54022
444 1 10.9889 -18.0785 -2.7075 8.94058e-11 -3.54022
445 1 10.6344 -16.3061 -0.9 1.49006e-11 -3.54022
446 1 10.2799 -14.5337 0.9075 1.20004e-19 -3.54022
447 1 9.92544 -12.7613 2.715 4.00014e-20 -3.54022
448 1 12.4068 -15.9516 -2.7075 4.00014e-20 -3.54022
449 1 12.0523 -14.1792 -0.9 7.00018e-20 -3.54022
450 1 11.6978 -12.4068 0.9075 4.00014e-20 -3.54022
451 1 11.3434 -10.6344 2.715 2.99996e-20 -3.54022
452 1 13.8247 -13.8247 -2.7075 6.00007e-20 -3.54022
453 1 13.4702 -12.0523 -0.9 1.20004e-19 -3.54022
454 1 13.1158 -10.2799 0.9075 7.00025e-20 -3.54022
455 1 12.7613 -8.50752 2.715 4.00014e-20 -3.54022
456 1 15.2426 -11.6978 -2.7075 8.00085e-20 -3.54022
457 1 14.8882 -9.92544 -0.9 5.99872e-20 -3.54022
458 1 14.5337 -8.15304 0.9075 2e-20 -3.54022
459 1 14.1792 -6.38064 2.715 6.00014e-20 -3.54022
460 1 16.6606 -9.57096 -2.7075 6.9994e-20 -3.54022
461 1 16.3061 -7.79856 -0.9 8.00004e-20 -3.54022
462 1 15.9516 -6.02616 0.9075 6.99982e-20 -3.54022
463 1 15.5971 -4.25376 2.715 8.00014e-20 -3.54022
464 1 18.0785 -7.44408 -2.7075 1.10001e-19 -3.54022
465 1 17.724 -5.67168 -0.9 2.00004e-20 -3.54022
466 1 17.3695 -3.89928 0.9075 2.00007e-20 -3.54022
467 1 17.015 -2.12688 2.715 8.9978e-20 -3.54022
468 1 19.4964 -5.3172 -2.7075 3.99922e-20 -3.54022
469 1 19.1419 -3.5448 -0.9 4.99982e-20 -3.54022
470 1 18.7874 -1.7724 0.9075 9.00178e-20 -3.54022
471 1 18.433 -7.959e-07 2.715 9.00096e-20 -3.54022
472 1 20.9143 -3.19032 -2.7075 5.99947e-20 -3.54022
473 1 20.5598 -1.41792 -0.9 2e-20 -3.54022
474 1 20.2054 0.354479 0.9075 5.99993e-20 -3.54022
475 1 19.8509 2.12688 2.715 4.00007e-20 -3.54022
476 1 22.3322 -1.06344 -2.7075 1.99996e-20 -3.54022
477 1 21.9778 0.708959 -0.9 6.00021e-20 -3.54022
478 1 21.6233 2.48136 0.9075 1.20014e-19 -3.54022
479 1 21.2688 4.25376 2.715 6.00014e-20 -3.54022
480 1 23.7502 1.06344 -2.7075 6.99989e-20 -3.54022
481 1 23.3957 2.83584 -0.9 9.00174e-20 -3.54022
482 1 23.0412 4.60824 0.9075 3.9995e-20 -3.54022
483 1 22.6867 6.38064 2.715 1.00004e-20 -3.54022
484 1 25.1681 3.19032 -2.7075 3.99957e-20 -3.54022
485 1 24.8136 4.96272 -0.9 9.00096e-20 -3.54022
486 1 24.4591 6.73512 0.9075 7.00146e-20 -3.54022
487 1 24.1046 8.50752 2.715 7.00139e-20 -3.54022
488 1 26.586 5.3172 -2.7075 1.10007e-19 -3.54022
489 1 26.2315 7.0896 -0.9 8.00036e-20 -3.54022
490 1 25.877 8.862 0.9075 1.99993e-20 -3.54022
491 1 25.5226 10.6344 2.715 4.00007e-20 -3.54022
492 1 28.0039 7.44408 -2.7075 7.00103e-20 -3.54022
493 1 27.6494 9.21648 -0.9 5.99886e-20 -3.54022
494 1 27.295 10.9889 0.9075 7.00053e-20 -3.54022
495 1 26.9405 12.7613 2.715 1.20024e-19 -3.54022
496 1 29.4218 9.57096 -2.7075 1.20021e-19 -3.54022
497 1 29.0674 11.3434 -0.9 4.00007e-20 -3.54022
498 1 28.7129 13.1158 0.9075 3.99936e-20 -3.54022
499 1 28.3584 14.8882 2.715 7.00117e-20 -3.54022
500 1 30.8398 11.6978 -2.7075 3.00011e-20 -3.54022
501 1 30.4853 13.4702 -0.9 2.00007e-20 -3.54022
502 1 30.1308 15.2426 0.9075 9.99965e-20 -3.54022
503 1 29.7763 17.015 2.715 4.47009e-11 -3.54022
504 1 32.2577 13.8247 -2.7075 6.99918e-20 -3.54022
505 1 31.9032 15.5971 -0.9 6.0005e-20 -3.54022
506 1 31.5487 17.3695 0.9075 5.96056e-11 -3.54022
507 1 33.6756 15.9516 -2.7075 1.99965e-20 -3.54022
508 1 33.3211 17.724 -0.9 5.96074e-11 -3.54022
509 1 35.0935 18.0785 -2.7075 5.96088e-11 -3.54022
510 1 10.9889 -18.0785 0.9075 8.94058e-11 -3.54022
511 1 10.6344 -16.3061 2.715 1.49006e-11 -3.54022
512 1 12.7613 -17.724 -0.9 5.96088e-11 -3.54022
513 1 12.4068 -15.9516 0.9075 4.00014e-20 -3.54022
514 1 12.0523 -14.1792 2.715 7.00018e-20 -3.54022
515 1 14.5337 -17.3695 -2.7075 5.96077e-11 -3.54022
516 1 14.1792 -15.5971 -0.9 2.00007e-20 -3.54022
517 1 13.8247 -13.8247 0.9075 6.00007e-20 -3.54022
518 1 13.4702 -12.0523 2.715 1.20004e-19 -3.54022
519 1 15.9516 -15.2426 -2.7075 8.00029e-20 -3.54022
520 1 15.5971 -13.4702 -0.9 7.00025e-20 -3.54022
521 1 15.2426 -11.6978 0.9075 8.00085e-20 -3.54022
522 1 14.8882 -9.92544 2.715 5.99872e-20 -3.54022
523 1 17.3695 -13.1158 -2.7075 1.99979e-20 -3.54022
524 1 17.015 -11.3434 -0.9 9.99752e-21 -3.54022
525 1 16.6606 -9.57096 0.9075 6.9994e-20 -3.54022
526 1 16.3061 -7.79856 2.715 8.00004e-20 -3.54022
527 1 18.7874 -10.9889 -2.7075 4.00014e-20 -3.54022
528 1 18.433 -9.21648 -0.9 8.99975e-20 -3.54022
529 1 18.0785 -7.44408 0.9075 1.10001e-19 -3.54022
530 1 17.724 -5.67168 2.715 2.00004e-20 -3.54022
531 1 20.2054 -8.862 -2.7075 4.00014e-20 -3.54022
532 1 19.8509 -7.0896 -0.9 7.00103e-20 -3.54022
533 1 19.4964 -5.3172 0.9075 3.99922e-20 -3.54022
534 1 19.1419 -3.5448 2.715 4.99982e-20 -3.54022
535 1 21.6233 -6.73512 -2.7075 5.99908e-20 -3.54022
536 1 21.2688 -4.96272 -0.9 1.20019e-19 -3.54022
537 1 20.9143 -3.19032 0.9075 5.99947e-20 -3.54022
538 1 20.5598 -1.41792 2.715 2e-20 -3.54022
539 1 23.0412 -4.60824 -2.7075 7.99922e-20 -3.54022
540 1 22.6867 -2.83584 -0.9 6.00071e-20 -3.54022
541 1 22.3322 -1.06344 0.9075 1.99996e-20 -3.54022
542 1 21.9778 0.708959 2.715 6.00021e-20 -3.54022
543 1 24.4591 -2.48136 -2.7075 9.00025e-20 -3.54022
544 1 24.1046 -0.708961 -0.9 8.99965e-20 -3.54022
545 1 23.7502 1.06344 0.9075 6.99989e-20 -3.54022
546 1 23.3957 2.83584 2.715 9.00174e-20 -3.54022
547 1 25.877 -0.354481 -2.7075 8.99947e-20 -3.54022
548 1 25.5226 1.41792 -0.9 1.99972e-20 -3.54022
549 1 25.1681 3.19032 0.9075 3.99957e-20 -3.54022
550 1 24.8136 4.96272 2.715 9.00096e-20 -3.54022
551 1 27.295 1.7724 -2.7075 6e-20 -3.54022
552 1 26.9405 3.5448 -0.9 6.99975e-20 -3.54022
553 1 26.586 5.3172 0.9075 1.10007e-19 -3.54022
554 1 26.2315 7.0896 2.715 8.00036e-20 -3.54022
555 1 28.7129 3.89928 -2.7075 4.00007e-20 -3.54022
556 1 28.3584 5.67168 -0.9 2e-20 -3.54022
557 1 28.0039 7.44408 0.9075 7.00103e-20 -3.54022
558 1 27.6494 9.21648 2.715 5.99886e-20 -3.54022
559 1 30.1308 6.02616 -2.7075 1.00025e-20 -3.54022
560 1 29.7763 7.79856 -0.9 7.99915e-20 -3.54022
561 1 29.4218 9.57096 0.9075 1.20021e-19 -3.54022
562 1 29.0674 11.3434 2.715 4.00007e-20 -3.54022
563 1 31.5487 8.15304 -2.7075 6.00029e-20 -3.54022
564 1 31.1942 9.92544 -0.9 6.9994e-20 -3.54022
565 1 30.8398 11.6978 0.9075 3.00011e-20 -3.54022
566 1 30.4853 13.4702 2.715 2.00007e-20 -3.54022
567 1 32.9666 10.2799 -2.7075 4.00043e-20 -3.54022
568 1 32.6122 12.0523 -0.9 8.99961e-20 -3.54022
569 1 32.2577 13.8247 0.9075 6.99918e-20 -3.54022
570 1 31.9032 15.5971 2.715 6.0005e-20 -3.54022
571 1 34.3846 12.4068 -2.7075 1.10009e-19 -3.54022
572 1 34.0301 14.1792 -0.9 8.00256e-20 -3.54022
573 1 33.6756 15.9516 0.9075 1.99965e-20 -3.54022
574 1 33.3211 17.724 2.715 5.96074e-11 -3.54022
575 1 35.8025 14.5337 -2.7075 6.99854e-20 -3.54022
576 1 35.448 16.3061 -0.9 6.00078e-20 -3.54022
577 1 35.0935 18.0785 0.9075 5.96088e-11 -3.54022
578 1 37.2204 16.6606 -2.7075 1.49e-11 -3.54022
579 1 36.8659 18.433 -0.9 8.94049e-11 -3.54022
580 1 12.7613 -17.724 2.715 5.96088e-11 -3.54022
581 1 14.5337 -17.3695 0.9075 5.96077e-11 -3.54022
582 1 14.1792 -15.5971 2.715 2.00007e-20 -3.54022
583 1 16.3061 -17.015 -0.9 5.96037e-11 -3.54022
584 1 15.9516 -15.2426 0.9075 8.00029e-20 -3.54022
585 1 15.5971 -13.4702 2.715 7.00025e-20 -3.54022
586 1 18.0785 -16.6606 -2.7075 4.47012e-11 -3.54022
587 1 17.724 -14.8882 -0.9 1.09993e-19 -3.54022
588 1 17.3695 -13.1158 0.9075 1.99979e-20 -3.54022
589 1 17.015 -11.3434 2.715 9.99752e-21 -3.54022
590 1 19.4964 -14.5337 -2.7075 5.99879e-20 -3.54022
591 1 19.1419 -12.7613 -0.9 6.00078e-20 -3.54022
592 1 18.7874 -10.9889 0.9075 4.00014e-20 -3.54022
593 1 18.433 -9.21648 2.715 8.99975e-20 -3.54022
594 1 20.9143 -12.4068 -2.7075 1.19999e-19 -3.54022
595 1 20.5598 -10.6344 -0.9 9.00004e-20 -3.54022
596 1 20.2054 -8.862 0.9075 4.00014e-20 -3.54022
597 1 19.8509 -7.0896 2.715 7.00103e-20 -3.54022
598 1 22.3322 -10.2799 -2.7075 6.99933e-20 -3.54022
599 1 21.9778 -8.50752 -0.9 1.99972e-20 -3.54022
600 1 21.6233 -6.73512 0.9075 5.99908e-20 -3.54022
601 1 21.2688 -4.96272 2.715 1.20019e-19 -3.54022
602 1 23.7502 -8.15304 -2.7075 9.00117e-20 -3.54022
603 1 23.3957 -6.38064 -0.9 7e-20 -3.54022
604 1 23.0412 -4.60824 0.9075 7.99922e-20 -3.54022
605 1 22.6867 -2.83584 2.715 6.00071e-20 -3.54022
606 1 25.1681 -6.02616 -2.7075 2.00004e-20 -3.54022
607 1 24.8136 -4.25376 -0.9 1.99996e-20 -3.54022