ITEM: TIMESTEP
0
ITEM: NUMBER OF ATOMS
2504
ITEM: BOX BOUNDS xy xz yz mm pp pp
-5.5398871900000003e+01 5.5398871900000003e+01 0.0000000000000000e+00
-1.8432957300000002e+01 1.8432957300000002e+01 0.0000000000000000e+00
-3.6150000000000002e+00 3.6150000000000002e+00 0.0000000000000000e+00
ITEM: ATOMS id type x y z c_csym c_energy
1 1 0.354481 16.6568 -2.7075 7.0504 22.4777
2 1 7.959e-07 -18.4329 -0.9 10.3941 -2.59144
3 1 1.06344 13.0911 -2.7075 5.37883 -3.38551
4 1 0.70896 14.8775 -0.9 4.55508 -1.0941
5 1 0.354481 16.6568 0.9075 7.0504 22.4777
6 1 7.959e-07 -18.4329 2.715 10.3941 -2.59144
7 1 2.48136 15.21 -2.7075 0.000304124 -3.60545
8 1 2.12688 16.9942 -0.9 0.000133592 -3.63703
9 1 3.89928 17.3357 -2.7075 0.000275467 -3.54404
10 1 0.35448 7.11429 -2.7075 0.0314028 -3.50364
11 1 3.98e-07 8.90998 -0.9 6.25378 -3.21894
12 1 1.7724 9.42663 -2.7075 6.24067 -3.45383
13 1 1.41792 11.2848 -0.9 5.23595 -3.35089
14 1 1.06344 13.0911 0.9075 5.37883 -3.38551
15 1 0.70896 14.8775 2.715 4.55508 -1.0941
16 1 3.19032 11.6123 -2.7075 0.00328985 -3.50564
17 1 2.83584 13.418 -0.9 0.000743329 -3.52627
18 1 2.48136 15.21 0.9075 0.000304124 -3.60545
19 1 2.12688 16.9942 2.715 0.000133592 -3.63703
20 1 4.60824 13.7584 -2.7075 0.000349003 -3.53952
21 1 4.25376 15.55 -0.9 0.000139437 -3.5394
22 1 3.89928 17.3357 0.9075 0.000275467 -3.54404
23 1 6.02616 15.8958 -2.7075 8.25278e-05 -3.54065
24 1 5.67168 17.6811 -0.9 0.000601649 -3.54056
25 1 7.44408 18.0297 -2.7075 0.0010053 -3.54045
26 1 1.06344 3.57621 -2.7075 0.000891987 -3.54038
27 1 0.70896 5.34485 -0.9 0.00488084 -3.52875
28 1 0.35448 7.11429 0.9075 0.0314028 -3.50364
29 1 3.98e-07 8.90998 2.715 6.25378 -3.21894
30 1 2.48136 5.76449 -2.7075 0.00310534 -3.53462
31 1 2.12688 7.56902 -0.9 0.0149846 -3.52809
32 1 1.7724 9.42663 0.9075 6.24067 -3.45383
33 1 1.41792 11.2848 2.715 5.23595 -3.35089
34 1 3.89928 7.97069 -2.7075 0.00352894 -3.53689
35 1 3.5448 9.79116 -0.9 0.00577463 -3.52792
36 1 3.19032 11.6123 0.9075 0.00328985 -3.50564
37 1 2.83584 13.418 2.715 0.000743329 -3.52627
38 1 5.3172 10.155 -2.7075 0.00132896 -3.53817
39 1 4.96272 11.9596 -0.9 0.000900267 -3.53898
40 1 4.60824 13.7584 0.9075 0.000349003 -3.53952
41 1 4.25376 15.55 2.715 0.000139437 -3.5394
42 1 6.73512 12.3136 -2.7075 0.000338243 -3.53948
43 1 6.38064 14.1066 -0.9 0.000179353 -3.53973
44 1 6.02616 15.8958 0.9075 8.25278e-05 -3.54065
45 1 5.67168 17.6811 2.715 0.000601649 -3.54056
46 1 8.15304 14.459 -2.7075 9.64476e-05 -3.53987
47 1 7.79856 16.2456 -0.9 5.23787e-05 -3.54114
48 1 7.44408 18.0297 0.9075 0.0010053 -3.54045
49 1 9.57096 16.5979 -2.7075 6.93466e-05 -3.54138
50 1 9.21648 18.3807 -0.9 0.00140171 -3.54013
51 1 0.35448 -2.11788 -2.7075 8.95804e-05 -3.51267
52 1 0 -0.354487 -0.9 1.2957e-28 -3.53036
53 1 1.7724 0.0429291 -2.7075 5.16299e-05 -3.53897
54 1 1.41792 1.8087 -0.9 0.000192642 -3.53839
55 1 1.06344 3.57621 0.9075 0.000891987 -3.54038
56 1 0.70896 5.34485 2.715 0.00488084 -3.52875
57 1 3.19032 2.20684 -2.7075 0.000258025 -3.53857
58 1 2.83584 3.98128 -0.9 0.000759429 -3.53744
59 1 2.48136 5.76449 0.9075 0.00310534 -3.53462
60 1 2.12688 7.56902 2.715 0.0149846 -3.52809
61 1 4.60824 4.37869 -2.7075 0.000414216 -3.53798
62 1 4.25376 6.16711 -0.9 0.000925062 -3.5367
63 1 3.89928 7.97069 0.9075 0.00352894 -3.53689
64 1 3.5448 9.79116 2.715 0.00577463 -3.52792
65 1 6.02616 6.55458 -2.7075 0.000461881 -3.5384
66 1 5.67168 8.35121 -0.9 0.00099116 -3.53807
67 1 5.3172 10.155 0.9075 0.00132896 -3.53817
68 1 4.96272 11.9596 2.715 0.000900267 -3.53898
69 1 7.44408 8.72349 -2.7075 0.000375522 -3.53909
70 1 7.0896 10.5182 -0.9 0.000440982 -3.5392
71 1 6.73512 12.3136 0.9075 0.000338243 -3.53948
72 1 6.38064 14.1066 2.715 0.000179353 -3.53973
73 1 8.862 10.8806 -2.7075 0.000183524 -3.53964
74 1 8.50752 12.6703 -0.9 0.000151528 -3.53975
75 1 8.15304 14.459 0.9075 9.64476e-05 -3.53987
76 1 7.79856 16.2456 2.715 5.23787e-05 -3.54114
77 1 10.2799 13.0281 -2.7075 7.6149e-05 -3.53991
78 1 9.92544 14.8136 -0.9 5.43882e-05 -3.54004
79 1 9.57096 16.5979 0.9075 6.93466e-05 -3.54138
80 1 9.21648 18.3807 2.715 0.00140171 -3.54013
81 1 11.6978 15.1695 -2.7075 3.20319e-05 -3.54031
82 1 11.3434 16.9519 -0.9 0.000133637 -3.54123
83 1 13.1158 17.3068 -2.7075 0.000211433 -3.54093
84 1 1.06344 -5.63342 -2.7075 0.0027801 -3.54055
85 1 0.70896 -3.879 -0.9 0.000544382 -3.53339
86 1 0.35448 -2.11788 0.9075 8.95804e-05 -3.51267
87 1 0 -0.354487 2.715 1.16751e-28 -3.53036
88 1 2.48136 -3.47847 -2.7075 0.000268141 -3.5393
89 1 2.12688 -1.72009 -0.9 8.27982e-05 -3.53915
90 1 1.7724 0.0429291 0.9075 5.16299e-05 -3.53897
91 1 1.41792 1.8087 2.715 0.000192642 -3.53839
92 1 3.89928 -1.32668 -2.7075 0.000134242 -3.53929
93 1 3.5448 0.437728 -0.9 0.000132494 -3.53906
94 1 3.19032 2.20684 0.9075 0.000258025 -3.53857
95 1 2.83584 3.98128 2.715 0.000759429 -3.53744
96 1 5.3172 0.828026 -2.7075 0.000154837 -3.53925
97 1 4.96272 2.60003 -0.9 0.000223475 -3.53881
98 1 4.60824 4.37869 0.9075 0.000414216 -3.53798
99 1 4.25376 6.16711 2.715 0.000925062 -3.5367
100 1 6.73512 2.98684 -2.7075 0.000158454 -3.5392
101 1 6.38064 4.76686 -0.9 0.000239405 -3.53879
102 1 6.02616 6.55458 0.9075 0.000461881 -3.5384
103 1 5.67168 8.35121 2.715 0.00099116 -3.53807
104 1 8.15304 5.14732 -2.7075 0.000144844 -3.53933
105 1 7.79856 6.93267 -0.9 0.000236631 -3.53917
106 1 7.44408 8.72349 0.9075 0.000375522 -3.53909
107 1 7.0896 10.5182 2.715 0.000440982 -3.5392
108 1 9.57096 7.30503 -2.7075 0.000123974 -3.53959
109 1 9.21648 9.09158 -0.9 0.000167599 -3.53957
110 1 8.862 10.8806 0.9075 0.000183524 -3.53964
111 1 8.50752 12.6703 2.715 0.000151528 -3.53975
112 1 10.9889 9.4571 -2.7075 8.32248e-05 -3.53982
113 1 10.6344 11.2423 -0.9 8.79842e-05 -3.53986
114 1 10.2799 13.0281 0.9075 7.6149e-05 -3.53991
115 1 9.92544 14.8136 2.715 5.43882e-05 -3.54004
116 1 12.4068 11.6033 -2.7075 4.63574e-05 -3.53998
117 1 12.0523 13.3864 -0.9 4.14865e-05 -3.54001
118 1 11.6978 15.1695 0.9075 3.20319e-05 -3.54031
119 1 11.3434 16.9519 2.715 0.000133637 -3.54123
120 1 13.8247 13.7448 -2.7075 2.3989e-05 -3.54007
121 1 13.4702 15.526 -0.9 1.95872e-05 -3.54058
122 1 13.1158 17.3068 0.9075 0.000211433 -3.54093
123 1 15.2426 15.8828 -2.7075 1.23674e-05 -3.54079
124 1 14.8882 17.6624 -0.9 0.000312784 -3.54066
125 1 16.6606 18.0183 -2.7075 0.000412154 -3.54043
126 1 0.354479 -11.0092 -2.7075 7.1394 22.6017
127 1 -3.98e-07 -9.61896 -0.9 4.47371 -0.845375
128 1 1.7724 -9.05051 -2.7075 0.114503 -3.55632
129 1 1.41792 -7.36797 -0.9 0.0232862 -3.54109
130 1 1.06344 -5.63342 0.9075 0.0027801 -3.54055
131 1 0.70896 -3.879 2.715 0.000544382 -3.53339
132 1 3.19032 -6.9647 -2.7075 0.00355584 -3.53264
133 1 2.83584 -5.2286 -0.9 0.000812417 -3.53909
134 1 2.48136 -3.47847 0.9075 0.000268141 -3.5393
135 1 2.12688 -1.72009 2.715 8.27982e-05 -3.53915
136 1 4.60824 -4.83781 -2.7075 0.000493279 -3.53876
137 1 4.25376 -3.0857 -0.9 0.000227656 -3.53929
138 1 3.89928 -1.32668 0.9075 0.000134242 -3.53929
139 1 3.5448 0.437728 2.715 0.000132494 -3.53906
140 1 6.02616 -2.69982 -2.7075 0.000194952 -3.53945
141 1 5.67168 -0.938522 -0.9 0.000149728 -3.53945
142 1 5.3172 0.828026 0.9075 0.000154837 -3.53925
143 1 4.96272 2.60003 2.715 0.000223475 -3.53881
144 1 7.44408 -0.555544 -2.7075 0.000123683 -3.53962
145 1 7.0896 1.21304 -0.9 0.000127189 -3.53948
146 1 6.73512 2.98684 0.9075 0.000158454 -3.5392
147 1 6.38064 4.76686 2.715 0.000239405 -3.53879
148 1 8.862 1.5929 -2.7075 8.8202e-05 -3.53968
149 1 8.50752 3.36757 -0.9 0.000103717 -3.53953
150 1 8.15304 5.14732 0.9075 0.000144844 -3.53933
151 1 7.79856 6.93267 2.715 0.000236631 -3.53917
152 1 10.2799 3.7432 -2.7075 6.51892e-05 -3.53976
153 1 9.92544 5.52209 -0.9 8.62381e-05 -3.53966
154 1 9.57096 7.30503 0.9075 0.000123974 -3.53959
155 1 9.21648 9.09158 2.715 0.000167599 -3.53957
156 1 11.6978 5.89275 -2.7075 5.10187e-05 -3.53986
157 1 11.3434 7.67365 -0.9 6.73284e-05 -3.53983
158 1 10.9889 9.4571 0.9075 8.32248e-05 -3.53982
159 1 10.6344 11.2423 2.715 8.79842e-05 -3.53986
160 1 13.1158 8.03967 -2.7075 3.79897e-05 -3.53996
161 1 12.7613 9.82083 -0.9 4.45873e-05 -3.53996
162 1 12.4068 11.6033 0.9075 4.63574e-05 -3.53998
163 1 12.0523 13.3864 2.715 4.14865e-05 -3.54001
164 1 14.5337 10.1832 -2.7075 2.52988e-05 -3.54005
165 1 14.1792 11.9637 -0.9 2.61244e-05 -3.54006
166 1 13.8247 13.7448 0.9075 2.3989e-05 -3.54007
167 1 13.4702 15.526 2.715 1.95872e-05 -3.54058
168 1 15.9516 12.3236 -2.7075 1.54892e-05 -3.5401
169 1 15.5971 14.1031 -0.9 1.4522e-05 -3.54011
170 1 15.2426 15.8828 0.9075 1.23674e-05 -3.54079
171 1 14.8882 17.6624 2.715 0.000312784 -3.54066
172 1 17.3695 14.4612 -2.7075 9.11968e-06 -3.54014
173 1 17.015 16.2398 -0.9 8.02645e-06 -3.54097
174 1 16.6606 18.0183 0.9075 0.000412154 -3.54043
175 1 18.7874 16.5968 -2.7075 1.59601e-05 -3.54101
176 1 18.433 18.3744 -0.9 0.000501416 -3.54019
177 1 1.06344 -14.5509 -2.7075 5.31911 -3.39226
178 1 0.708959 -12.78 -0.9 4.50123 -1.12336
179 1 0.354479 -11.0092 0.9075 7.1394 22.6017
180 1 -3.98e-07 -9.61896 2.715 4.47371 -0.845375
181 1 2.48136 -12.4685 -2.7075 0.00305779 -3.61017
182 1 2.12688 -10.7333 -0.9 0.0970861 -3.59999
183 1 1.7724 -9.05051 0.9075 0.114503 -3.55632
184 1 1.41792 -7.36797 2.715 0.0232862 -3.54109
185 1 3.89928 -10.4049 -2.7075 0.00343943 -3.5393
186 1 3.5448 -8.68479 -0.9 0.0059564 -3.53061
187 1 3.19032 -6.9647 0.9075 0.00355584 -3.53264
188 1 2.83584 -5.2286 2.715 0.000812417 -3.53909
189 1 5.3172 -8.31906 -2.7075 0.00144352 -3.53702
190 1 4.96272 -6.58172 -0.9 0.00108066 -3.5377
191 1 4.60824 -4.83781 0.9075 0.000493279 -3.53876
192 1 4.25376 -3.0857 2.715 0.000227656 -3.53929
193 1 6.73512 -6.20639 -2.7075 0.000453704 -3.53886
194 1 6.38064 -4.45569 -0.9 0.000302248 -3.53922
195 1 6.02616 -2.69982 0.9075 0.000194952 -3.53945
196 1 5.67168 -0.938522 2.715 0.000149728 -3.53945
197 1 8.15304 -4.07899 -2.7075 0.000182033 -3.53956
198 1 7.79856 -2.31942 -0.9 0.000142907 -3.53965
199 1 7.44408 -0.555544 0.9075 0.000123683 -3.53962
200 1 7.0896 1.21304 2.715 0.000127189 -3.53948
201 1 9.57096 -1.94339 -2.7075 9.46733e-05 -3.53981
202 1 9.21648 -0.177244 -0.9 8.65292e-05 -3.53978
203 1 8.862 1.5929 0.9075 8.8202e-05 -3.53968
204 1 8.50752 3.36757 2.715 0.000103717 -3.53953
205 1 10.9889 0.19705 -2.7075 5.57809e-05 -3.5399
206 1 10.6344 1.96828 -0.9 5.66843e-05 -3.53984
207 1 10.2799 3.7432 0.9075 6.51892e-05 -3.53976
208 1 9.92544 5.52209 2.715 8.62381e-05 -3.53966
209 1 12.4068 2.33994 -2.7075 3.54191e-05 -3.53996
210 1 12.0523 4.11481 -0.9 4.02674e-05 -3.53991
211 1 11.6978 5.89275 0.9075 5.10187e-05 -3.53986
212 1 11.3434 7.67365 2.715 6.73284e-05 -3.53983
213 1 13.8247 4.48333 -2.7075 2.48639e-05 -3.54001
214 1 13.4702 6.26038 -0.9 3.04545e-05 -3.53998
215 1 13.1158 8.03967 0.9075 3.79897e-05 -3.53996
216 1 12.7613 9.82083 2.715 4.45873e-05 -3.53996
217 1 15.2426 6.62574 -2.7075 1.8509e-05 -3.54006
218 1 14.8882 8.40377 -0.9 2.2233e-05 -3.54005
219 1 14.5337 10.1832 0.9075 2.52988e-05 -3.54005
220 1 14.1792 11.9637 2.715 2.61244e-05 -3.54006
221 1 16.6606 8.7664 -2.7075 1.34578e-05 -3.5401
222 1 16.3061 10.5446 -0.9 1.50239e-05 -3.5401
223 1 15.9516 12.3236 0.9075 1.54892e-05 -3.5401
224 1 15.5971 14.1031 2.715 1.4522e-05 -3.54011
225 1 18.0785 10.9051 -2.7075 9.26422e-06 -3.54013
226 1 17.724 12.6829 -0.9 9.56077e-06 -3.54014
227 1 17.3695 14.4612 0.9075 9.11968e-06 -3.54014
228 1 17.015 16.2398 2.715 8.02645e-06 -3.54097
229 1 19.4964 13.0418 -2.7075 6.1005e-06 -3.54016
230 1 19.1419 14.8192 -0.9 5.9039e-06 -3.5402
231 1 18.7874 16.5968 0.9075 1.59601e-05 -3.54101
232 1 18.433 18.3744 2.715 0.000501416 -3.54019
233 1 20.9143 15.1769 -2.7075 3.9224e-06 -3.54033
234 1 20.5598 16.9538 -0.9 3.25143e-05 -3.54084
235 1 22.3322 17.3107 -2.7075 5.62593e-05 -3.54063
236 1 1.7724 -18.0935 -2.7075 1.31281 -3.52072
237 1 1.41792 -16.3221 -0.9 4.98743 -3.38353
238 1 1.06344 -14.5509 0.9075 5.31911 -3.39226
239 1 0.708959 -12.78 2.715 4.50123 -1.12336
240 1 3.19032 -15.9873 -2.7075 0.000265785 -3.51028
241 1 2.83584 -14.2242 -0.9 0.000768422 -3.52724
242 1 2.48136 -12.4685 0.9075 0.00305779 -3.61017
243 1 2.12688 -10.7333 2.715 0.0970861 -3.59999
244 1 4.60824 -13.8911 -2.7075 0.000318285 -3.53975
245 1 4.25376 -12.141 -0.9 0.000792478 -3.53798
246 1 3.89928 -10.4049 0.9075 0.00343943 -3.5393
247 1 3.5448 -8.68479 2.715 0.0059564 -3.53061
248 1 6.02616 -11.7994 -2.7075 0.000389391 -3.5389
249 1 5.67168 -10.0562 -0.9 0.000984445 -3.53773
250 1 5.3172 -8.31906 0.9075 0.00144352 -3.53702
251 1 4.96272 -6.58172 2.715 0.00108066 -3.5377
252 1 7.44408 -9.70029 -2.7075 0.000391547 -3.53888
253 1 7.0896 -7.95355 -0.9 0.000514922 -3.53868
254 1 6.73512 -6.20639 0.9075 0.000453704 -3.53886
255 1 6.38064 -4.45569 2.715 0.000302248 -3.53922
256 1 8.862 -7.58846 -2.7075 0.000231835 -3.53937
257 1 8.50752 -5.83491 -0.9 0.000224061 -3.53943
258 1 8.15304 -4.07899 0.9075 0.000182033 -3.53956
259 1 7.79856 -2.31942 2.715 0.000142907 -3.53965
260 1 10.2799 -5.4659 -2.7075 0.00012108 -3.53973
261 1 9.92544 -3.70604 -0.9 0.00010895 -3.53978
262 1 9.57096 -1.94339 0.9075 9.46733e-05 -3.53981
263 1 9.21648 -0.177244 2.715 8.65292e-05 -3.53978
264 1 11.6978 -3.33594 -2.7075 6.52088e-05 -3.53992
265 1 11.3434 -1.57087 -0.9 5.95228e-05 -3.53992
266 1 10.9889 0.19705 0.9075 5.57809e-05 -3.5399
267 1 10.6344 1.96828 2.715 5.66843e-05 -3.53984
268 1 13.1158 -1.20121 -2.7075 3.66552e-05 -3.54001
269 1 12.7613 0.568023 -0.9 3.4798e-05 -3.53999
270 1 12.4068 2.33994 0.9075 3.54191e-05 -3.53996
271 1 12.0523 4.11481 2.715 4.02674e-05 -3.53991
272 1 14.5337 0.936292 -2.7075 2.1589e-05 -3.54005
273 1 14.1792 2.70864 -0.9 2.20589e-05 -3.54003
274 1 13.8247 4.48333 0.9075 2.48639e-05 -3.54001
275 1 13.4702 6.26038 2.715 3.04545e-05 -3.53998
276 1 15.9516 3.07498 -2.7075 1.38693e-05 -3.54009
277 1 15.5971 4.84944 -0.9 1.55135e-05 -3.54007
278 1 15.2426 6.62574 0.9075 1.8509e-05 -3.54006
279 1 14.8882 8.40377 2.715 2.2233e-05 -3.54005
280 1 17.3695 5.21368 -2.7075 9.83928e-06 -3.54011
281 1 17.015 6.98937 -0.9 1.15003e-05 -3.54011
282 1 16.6606 8.7664 0.9075 1.34578e-05 -3.5401
283 1 16.3061 10.5446 2.715 1.50239e-05 -3.5401
284 1 18.7874 7.35163 -2.7075 7.31473e-06 -3.54014
285 1 18.433 9.12788 -0.9 8.40044e-06 -3.54013
286 1 18.0785 10.9051 0.9075 9.26422e-06 -3.54013
287 1 17.724 12.6829 2.715 9.56077e-06 -3.54014
288 1 20.2054 9.48845 -2.7075 5.39224e-06 -3.54016
289 1 19.8509 11.2648 -0.9 5.89832e-06 -3.54016
290 1 19.4964 13.0418 0.9075 6.1005e-06 -3.54016
291 1 19.1419 14.8192 2.715 5.9039e-06 -3.5402
292 1 21.6233 11.624 -2.7075 3.8612e-06 -3.54017
293 1 21.2688 13.4003 -0.9 4.00386e-06 -3.54017
294 1 20.9143 15.1769 0.9075 3.9224e-06 -3.54033
295 1 20.5598 16.9538 2.715 3.25143e-05 -3.54084
296 1 23.0412 13.7584 -2.7075 2.69296e-06 -3.54018
297 1 22.6867 15.5344 -0.9 2.66545e-06 -3.54046
298 1 22.3322 17.3107 0.9075 5.62593e-05 -3.54063
299 1 24.4591 15.8917 -2.7075 1.84793e-06 -3.54056
300 1 24.1046 17.6674 -0.9 8.71171e-05 -3.54046
301 1 25.877 18.0241 -2.7075 0.000117126 -3.54033
302 1 1.7724 -18.0935 0.9075 1.31281 -3.52072
303 1 1.41792 -16.3221 2.715 4.98743 -3.38353
304 1 3.5448 -17.7538 -0.9 0.000386413 -3.53389
305 1 3.19032 -15.9873 0.9075 0.000265785 -3.51028
306 1 2.83584 -14.2242 2.715 0.000768422 -3.52724
307 1 5.3172 -17.4125 -2.7075 0.000343889 -3.53929
308 1 4.96272 -15.6495 -0.9 0.000146145 -3.53941
309 1 4.60824 -13.8911 0.9075 0.000318285 -3.53975
310 1 4.25376 -12.141 2.715 0.000792478 -3.53798
311 1 6.73512 -15.3072 -2.7075 7.6298e-05 -3.53962
312 1 6.38064 -13.5502 -0.9 0.000155261 -3.53962
313 1 6.02616 -11.7994 0.9075 0.000389391 -3.5389
314 1 5.67168 -10.0562 2.715 0.000984445 -3.53773
315 1 8.15304 -13.2032 -2.7075 9.71627e-05 -3.53969
316 1 7.79856 -11.4497 -0.9 0.000209587 -3.53931
317 1 7.44408 -9.70029 0.9075 0.000391547 -3.53888
318 1 7.0896 -7.95355 2.715 0.000514922 -3.53868
319 1 9.57096 -11.0956 -2.7075 0.000118482 -3.53962
320 1 9.21648 -9.34143 -0.9 0.00018674 -3.53944
321 1 8.862 -7.58846 0.9075 0.000231835 -3.53937
322 1 8.50752 -5.83491 2.715 0.000224061 -3.53943
323 1 10.9889 -8.98128 -2.7075 9.96878e-05 -3.53974
324 1 10.6344 -7.22393 -0.9 0.000119495 -3.53971
325 1 10.2799 -5.4659 0.9075 0.00012108 -3.53973
326 1 9.92544 -3.70604 2.715 0.00010895 -3.53978
327 1 12.4068 -6.86007 -2.7075 6.67568e-05 -3.53989
328 1 12.0523 -5.09877 -0.9 6.89819e-05 -3.5399
329 1 11.6978 -3.33594 0.9075 6.52088e-05 -3.53992
330 1 11.3434 -1.57087 2.715 5.95228e-05 -3.53992
331 1 13.8247 -4.73318 -2.7075 4.06683e-05 -3.54
332 1 13.4702 -2.96812 -0.9 3.92543e-05 -3.54001
333 1 13.1158 -1.20121 0.9075 3.66552e-05 -3.54001
334 1 12.7613 0.568023 2.715 3.4798e-05 -3.53999
335 1 15.2426 -2.60217 -2.7075 2.3895e-05 -3.54007
336 1 14.8882 -0.83389 -0.9 2.25462e-05 -3.54007
337 1 14.5337 0.936292 0.9075 2.1589e-05 -3.54005
338 1 14.1792 2.70864 2.715 2.20589e-05 -3.54003
339 1 16.6606 -0.468479 -2.7075 1.40128e-05 -3.54011
340 1 16.3061 1.30238 -0.9 1.35158e-05 -3.5401
341 1 15.9516 3.07498 0.9075 1.38693e-05 -3.54009
342 1 15.5971 4.84944 2.715 1.55135e-05 -3.54007
343 1 18.0785 1.6667 -2.7075 8.60053e-06 -3.54013
344 1 17.724 3.43945 -0.9 8.85956e-06 -3.54012
345 1 17.3695 5.21368 0.9075 9.83928e-06 -3.54011
346 1 17.015 6.98937 2.715 1.15003e-05 -3.54011
347 1 19.4964 3.80243 -2.7075 5.7661e-06 -3.54015
348 1 19.1419 5.57644 -0.9 6.36128e-06 -3.54014
349 1 18.7874 7.35163 0.9075 7.31473e-06 -3.54014
350 1 18.433 9.12788 2.715 8.40044e-06 -3.54013
351 1 20.9143 5.93803 -2.7075 4.19615e-06 -3.54016
352 1 20.5598 7.7128 -0.9 4.76168e-06 -3.54016
353 1 20.2054 9.48845 0.9075 5.39224e-06 -3.54016
354 1 19.8509 11.2648 2.715 5.89832e-06 -3.54016
355 1 22.3322 8.0731 -2.7075 3.16944e-06 -3.54017
356 1 21.9778 9.84825 -0.9 3.55029e-06 -3.54017
357 1 21.6233 11.624 0.9075 3.8612e-06 -3.54017
358 1 21.2688 13.4003 2.715 4.00386e-06 -3.54017
359 1 23.7502 10.2074 -2.7075 2.39214e-06 -3.54018
360 1 23.3957 11.9827 -0.9 2.59044e-06 -3.54018
361 1 23.0412 13.7584 0.9075 2.69296e-06 -3.54018
362 1 22.6867 15.5344 2.715 2.66545e-06 -3.54046
363 1 25.1681 12.341 -2.7075 1.77642e-06 -3.54019
364 1 24.8136 14.1162 -0.9 1.85092e-06 -3.54019
365 1 24.4591 15.8917 0.9075 1.84793e-06 -3.54056
366 1 24.1046 17.6674 2.715 8.71171e-05 -3.54046
367 1 26.586 14.4737 -2.7075 1.29707e-06 -3.54019
368 1 26.2315 16.2488 -0.9 1.30441e-06 -3.54065
369 1 25.877 18.0241 0.9075 0.000117126 -3.54033
370 1 28.0039 16.6058 -2.7075 3.69921e-06 -3.54066
371 1 27.6494 18.3807 -0.9 0.000145634 -3.54021
372 1 3.5448 -17.7538 2.715 0.000386413 -3.53389
373 1 5.3172 -17.4125 0.9075 0.000343889 -3.53929
374 1 4.96272 -15.6495 2.715 0.000146145 -3.53941
375 1 7.0896 -17.0686 -0.9 0.00017366 -3.53894
376 1 6.73512 -15.3072 0.9075 7.6298e-05 -3.53962
377 1 6.38064 -13.5502 2.715 0.000155261 -3.53962
378 1 8.862 -16.7218 -2.7075 3.8178e-05 -3.53871
379 1 8.50752 -14.9608 -0.9 4.76941e-05 -3.53985
380 1 8.15304 -13.2032 0.9075 9.71627e-05 -3.53969
381 1 7.79856 -11.4497 2.715 0.000209587 -3.53931
382 1 10.2799 -14.611 -2.7075 3.40091e-05 -3.53996
383 1 9.92544 -12.852 -0.9 6.46405e-05 -3.53981
384 1 9.57096 -11.0956 0.9075 0.000118482 -3.53962
385 1 9.21648 -9.34143 2.715 0.00018674 -3.53944
386 1 11.6978 -12.4981 -2.7075 4.34302e-05 -3.53992
387 1 11.3434 -10.7391 -0.9 7.0196e-05 -3.53982
388 1 10.9889 -8.98128 0.9075 9.96878e-05 -3.53974
389 1 10.6344 -7.22393 2.715 0.000119495 -3.53971
390 1 13.1158 -10.3812 -2.7075 4.32195e-05 -3.53995
391 1 12.7613 -8.62064 -0.9 5.72152e-05 -3.53991
392 1 12.4068 -6.86007 0.9075 6.67568e-05 -3.53989
393 1 12.0523 -5.09877 2.715 6.89819e-05 -3.5399
394 1 14.5337 -8.25993 -2.7075 3.44493e-05 -3.54001
395 1 14.1792 -6.49692 -0.9 3.92271e-05 -3.54
396 1 13.8247 -4.73318 0.9075 4.06683e-05 -3.54
397 1 13.4702 -2.96812 2.715 3.92543e-05 -3.54001
398 1 15.9516 -6.13451 -2.7075 2.38584e-05 -3.54007
399 1 15.5971 -4.36891 -0.9 2.45979e-05 -3.54007
400 1 15.2426 -2.60217 0.9075 2.3895e-05 -3.54007
401 1 14.8882 -0.83389 2.715 2.25462e-05 -3.54007
402 1 17.3695 -4.00579 -2.7075 1.52093e-05 -3.54011
403 1 17.015 -2.23778 -0.9 1.47718e-05 -3.54011
404 1 16.6606 -0.468479 0.9075 1.40128e-05 -3.54011
405 1 16.3061 1.30238 2.715 1.35158e-05 -3.5401
406 1 18.7874 -1.87469 -2.7075 9.3014e-06 -3.54014
407 1 18.433 -0.104634 -0.9 8.85623e-06 -3.54014
408 1 18.0785 1.6667 0.9075 8.60053e-06 -3.54013
409 1 17.724 3.43945 2.715 8.85956e-06 -3.54012
410 1 20.2054 0.257925 -2.7075 5.70917e-06 -3.54016
411 1 19.8509 2.0296 -0.9 5.58025e-06 -3.54015
412 1 19.4964 3.80243 0.9075 5.7661e-06 -3.54015
413 1 19.1419 5.57644 2.715 6.36128e-06 -3.54014
414 1 21.6233 2.39134 -2.7075 3.69515e-06 -3.54017
415 1 21.2688 4.1642 -0.9 3.82694e-06 -3.54017
416 1 20.9143 5.93803 0.9075 4.19615e-06 -3.54016
417 1 20.5598 7.7128 2.715 4.76168e-06 -3.54016
418 1 23.0412 4.525 -2.7075 2.58972e-06 -3.54018
419 1 22.6867 6.29867 -0.9 2.82365e-06 -3.54018
420 1 22.3322 8.0731 0.9075 3.16944e-06 -3.54017
421 1 21.9778 9.84825 2.715 3.55029e-06 -3.54017
422 1 24.4591 6.65852 -2.7075 1.9369e-06 -3.54019
423 1 24.1046 8.43268 -0.9 2.15427e-06 -3.54018
424 1 23.7502 10.2074 0.9075 2.39214e-06 -3.54018
425 1 23.3957 11.9827 2.715 2.59044e-06 -3.54018
426 1 25.877 8.79167 -2.7075 1.49312e-06 -3.54019
427 1 25.5226 10.5661 -0.9 1.64606e-06 -3.54019
428 1 25.1681 12.341 0.9075 1.77642e-06 -3.54019
429 1 24.8136 14.1162 2.715 1.85092e-06 -3.54019
430 1 27.295 10.9243 -2.7075 1.15462e-06 -3.5402
431 1 26.9405 12.6989 -0.9 1.24249e-06 -3.5402
432 1 26.586 14.4737 0.9075 1.29707e-06 -3.54019
433 1 26.2315 16.2488 2.715 1.30441e-06 -3.54065
434 1 28.7129 13.0564 -2.7075 8.84728e-07 -3.5402
435 1 28.3584 14.831 -0.9 9.25007e-07 -3.54022
436 1 28.0039 16.6058 0.9075 3.69921e-06 -3.54066
437 1 27.6494 18.3807 2.715 0.000145634 -3.54021
438 1 30.1308 15.188 -2.7075 6.70271e-07 -3.54029
439 1 29.7763 16.9625 -0.9 8.49226e-06 -3.54056
440 1 31.5487 17.3191 -2.7075 1.63168e-05 -3.54044
441 1 7.0896 -17.0686 2.715 0.00017366 -3.53894
442 1 8.862 -16.7218 0.9075 3.8178e-05 -3.53871
443 1 8.50752 -14.9608 2.715 4.76941e-05 -3.53985
444 1 10.9889 -18.136 -2.7075 0.000797549 -3.53989
445 1 10.6344 -16.3725 -0.9 1.89465e-05 -3.53892
446 1 10.2799 -14.611 0.9075 3.40091e-05 -3.53996
447 1 9.92544 -12.852 2.715 6.46405e-05 -3.53981
448 1 12.4068 -16.0211 -2.7075 1.44454e-05 -3.53933
449 1 12.0523 -14.2587 -0.9 2.51276e-05 -3.54
450 1 11.6978 -12.4981 0.9075 4.34302e-05 -3.53992
451 1 11.3434 -10.7391 2.715 7.0196e-05 -3.53982
452 1 13.8247 -13.9047 -2.7075 1.85463e-05 -3.54005
453 1 13.4702 -12.1425 -0.9 2.93438e-05 -3.54
454 1 13.1158 -10.3812 0.9075 4.32195e-05 -3.53995
455 1 12.7613 -8.62064 2.715 5.72152e-05 -3.53991
456 1 15.2426 -11.7858 -2.7075 1.9963e-05 -3.54006
457 1 14.8882 -10.0228 -0.9 2.74094e-05 -3.54003
458 1 14.5337 -8.25993 0.9075 3.44493e-05 -3.54001
459 1 14.1792 -6.49692 2.715 3.92271e-05 -3.54
460 1 16.6606 -9.66397 -2.7075 1.7781e-05 -3.54009
461 1 16.3061 -7.89939 -0.9 2.1443e-05 -3.54007
462 1 15.9516 -6.13451 0.9075 2.38584e-05 -3.54007
463 1 15.5971 -4.36891 2.715 2.45979e-05 -3.54007
464 1 18.0785 -7.53915 -2.7075 1.36824e-05 -3.54012
465 1 17.724 -5.7728 -0.9 1.48945e-05 -3.54011
466 1 17.3695 -4.00579 0.9075 1.52093e-05 -3.54011
467 1 17.015 -2.23778 2.715 1.47718e-05 -3.54011
468 1 19.4964 -5.41177 -2.7075 9.5038e-06 -3.54014
469 1 19.1419 -3.64366 -0.9 9.60109e-06 -3.54014
470 1 18.7874 -1.87469 0.9075 9.3014e-06 -3.54014
471 1 18.433 -0.104634 2.715 8.85623e-06 -3.54014
472 1 20.9143 -3.2824 -2.7075 6.18463e-06 -3.54016
473 1 20.5598 -1.5127 -0.9 5.97524e-06 -3.54016
474 1 20.2054 0.257925 0.9075 5.70917e-06 -3.54016
475 1 19.8509 2.0296 2.715 5.58025e-06 -3.54015
476 1 22.3322 -1.15162 -2.7075 3.91839e-06 -3.54017
477 1 21.9778 0.619422 -0.9 3.7579e-06 -3.54017
478 1 21.6233 2.39134 0.9075 3.69515e-06 -3.54017
479 1 21.2688 4.1642 2.715 3.82694e-06 -3.54017
480 1 23.7502 0.980037 -2.7075 2.52526e-06 -3.54018
481 1 23.3957 2.75213 -0.9 2.49663e-06 -3.54018
482 1 23.0412 4.525 0.9075 2.58972e-06 -3.54018
483 1 22.6867 6.29867 2.715 2.82365e-06 -3.54018
484 1 25.1681 3.11213 -2.7075 1.71969e-06 -3.54019
485 1 24.8136 4.885 -0.9 1.78555e-06 -3.54019
486 1 24.4591 6.65852 0.9075 1.9369e-06 -3.54019
487 1 24.1046 8.43268 2.715 2.15427e-06 -3.54018
488 1 26.586 5.24433 -2.7075 1.25308e-06 -3.54019
489 1 26.2315 7.01773 -0.9 1.35298e-06 -3.54019
490 1 25.877 8.79167 0.9075 1.49312e-06 -3.54019
491 1 25.5226 10.5661 2.715 1.64606e-06 -3.54019
492 1 28.0039 7.37641 -2.7075 9.61337e-07 -3.5402
493 1 27.6494 9.15016 -0.9 1.05378e-06 -3.5402
494 1 27.295 10.9243 0.9075 1.15462e-06 -3.5402
495 1 26.9405 12.6989 2.715 1.24249e-06 -3.5402
496 1 29.4218 9.50822 -2.7075 7.56263e-07 -3.5402
497 1 29.0674 11.2822 -0.9 8.24243e-07 -3.5402
498 1 28.7129 13.0564 0.9075 8.84728e-07 -3.5402
499 1 28.3584 14.831 2.715 9.25007e-07 -3.54022
500 1 30.8398 11.6397 -2.7075 5.9794e-07 -3.5402
501 1 30.4853 13.4137 -0.9 6.40343e-07 -3.5402
502 1 30.1308 15.188 0.9075 6.70271e-07 -3.54029
503 1 29.7763 16.9625 2.715 8.49226e-06 -3.54056
504 1 32.2577 13.7708 -2.7075 4.70433e-07 -3.54021
505 1 31.9032 15.5448 -0.9 4.92824e-07 -3.54036
506 1 31.5487 17.3191 0.9075 1.63168e-05 -3.54044
507 1 33.6756 15.9015 -2.7075 3.67246e-07 -3.54042
508 1 33.3211 17.6755 -0.9 2.65017e-05 -3.54035
509 1 35.0935 18.0319 -2.7075 3.67435e-05 -3.54028
510 1 10.9889 -18.136 0.9075 0.000797549 -3.53989
511 1 10.6344 -16.3725 2.715 1.89465e-05 -3.53892
512 1 12.7613 -17.785 -0.9 0.00039239 -3.53972
513 1 12.4068 -16.0211 0.9075 1.44454e-05 -3.53933
514 1 12.0523 -14.2587 2.715 2.51276e-05 -3.54
515 1 14.5337 -17.4327 -2.7075 0.000153391 -3.53954
516 1 14.1792 -15.6681 -0.9 1.13527e-05 -3.53964
517 1 13.8247 -13.9047 0.9075 1.85463e-05 -3.54005
518 1 13.4702 -12.1425 2.715 2.93438e-05 -3.54
519 1 15.9516 -15.314 -2.7075 8.87275e-06 -3.53992
520 1 15.5971 -13.5495 -0.9 1.35898e-05 -3.54009
521 1 15.2426 -11.7858 0.9075 1.9963e-05 -3.54006
522 1 14.8882 -10.0228 2.715 2.74094e-05 -3.54003
523 1 17.3695 -13.1935 -2.7075 9.90275e-06 -3.54012
524 1 17.015 -11.4286 -0.9 1.36837e-05 -3.5401
525 1 16.6606 -9.66397 0.9075 1.7781e-05 -3.54009
526 1 16.3061 -7.89939 2.715 2.1443e-05 -3.54007
527 1 18.7874 -11.071 -2.7075 9.4514e-06 -3.54013
528 1 18.433 -9.30513 -0.9 1.17438e-05 -3.54012
529 1 18.0785 -7.53915 0.9075 1.36824e-05 -3.54012
530 1 17.724 -5.7728 2.715 1.48945e-05 -3.54011
531 1 20.2054 -8.94636 -2.7075 7.87422e-06 -3.54015
532 1 19.8509 -7.17926 -0.9 8.90777e-06 -3.54014
533 1 19.4964 -5.41177 0.9075 9.5038e-06 -3.54014
534 1 19.1419 -3.64366 2.715 9.60109e-06 -3.54014
535 1 21.6233 -6.81975 -2.7075 5.90187e-06 -3.54016
536 1 21.2688 -5.05136 -0.9 6.18465e-06 -3.54016
537 1 20.9143 -3.2824 0.9075 6.18463e-06 -3.54016
538 1 20.5598 -1.5127 2.715 5.97524e-06 -3.54016
539 1 23.0412 -4.69151 -2.7075 4.09981e-06 -3.54018
540 1 22.6867 -2.92189 -0.9 4.0638e-06 -3.54017
541 1 22.3322 -1.15162 0.9075 3.91839e-06 -3.54017
542 1 21.9778 0.619422 2.715 3.7579e-06 -3.54017
543 1 24.4591 -2.56202 -2.7075 2.72253e-06 -3.54018
544 1 24.1046 -0.791323 -0.9 2.62259e-06 -3.54018
545 1 23.7502 0.980037 0.9075 2.52526e-06 -3.54018
546 1 23.3957 2.75213 2.715 2.49663e-06 -3.54018
547 1 25.877 -0.431686 -2.7075 1.79033e-06 -3.54019
548 1 25.5226 1.33991 -0.9 1.73106e-06 -3.54019
549 1 25.1681 3.11213 0.9075 1.71969e-06 -3.54019
550 1 24.8136 4.885 2.715 1.78555e-06 -3.54019
551 1 27.295 1.69917 -2.7075 1.20916e-06 -3.5402
552 1 26.9405 3.47148 -0.9 1.20626e-06 -3.5402
553 1 26.586 5.24433 0.9075 1.25308e-06 -3.54019
554 1 26.2315 7.01773 2.715 1.35298e-06 -3.54019
555 1 28.7129 3.83028 -2.7075 8.60605e-07 -3.5402
556 1 28.3584 5.60311 -0.9 8.94132e-07 -3.5402
557 1 28.0039 7.37641 0.9075 9.61337e-07 -3.5402
558 1 27.6494 9.15016 2.715 1.05378e-06 -3.5402
559 1 30.1308 5.96143 -2.7075 6.47967e-07 -3.5402
560 1 29.7763 7.73463 -0.9 6.93991e-07 -3.5402
561 1 29.4218 9.50822 0.9075 7.56263e-07 -3.5402
562 1 29.0674 11.2822 2.715 8.24243e-07 -3.5402
563 1 31.5487 8.09247 -2.7075 5.0844e-07 -3.54021
564 1 31.1942 9.86593 -0.9 5.51192e-07 -3.5402
565 1 30.8398 11.6397 0.9075 5.9794e-07 -3.5402
566 1 30.4853 13.4137 2.715 6.40343e-07 -3.5402
567 1 32.9666 10.2233 -2.7075 4.07502e-07 -3.54021
568 1 32.6122 11.9969 -0.9 4.40226e-07 -3.54021
569 1 32.2577 13.7708 0.9075 4.70433e-07 -3.54021
570 1 31.9032 15.5448 2.715 4.92824e-07 -3.54036
571 1 34.3846 12.3539 -2.7075 3.28547e-07 -3.54021
572 1 34.0301 14.1276 -0.9 3.50379e-07 -3.54021
573 1 33.6756 15.9015 0.9075 3.67246e-07 -3.54042
574 1 33.3211 17.6755 2.715 2.65017e-05 -3.54035
575 1 35.8025 14.4843 -2.7075 2.64279e-07 -3.54021
576 1 35.448 16.258 -0.9 2.77074e-07 -3.54047
577 1 35.0935 18.0319 0.9075 3.67435e-05 -3.54028
578 1 37.2204 16.6143 -2.7075 1.0725e-06 -3.54047
579 1 36.8659 18.388 -0.9 4.71861e-05 -3.54021
580 1 12.7613 -17.785 2.715 0.00039239 -3.53972
581 1 14.5337 -17.4327 0.9075 0.000153391 -3.53954
582 1 14.1792 -15.6681 2.715 1.13527e-05 -3.53964
583 1 16.3061 -17.0792 -0.9 3.83847e-05 -3.53938
584 1 15.9516 -15.314 0.9075 8.87275e-06 -3.53992
585 1 15.5971 -13.5495 2.715 1.35898e-05 -3.54009
586 1 18.0785 -16.725 -2.7075 3.988e-06 -3.53933
587 1 17.724 -14.959 -0.9 6.85672e-06 -3.5401
588 1 17.3695 -13.1935 0.9075 9.90275e-06 -3.54012
589 1 17.015 -11.4286 2.715 1.36837e-05 -3.5401
590 1 19.4964 -14.6034 -2.7075 5.2451e-06 -3.54016
591 1 19.1419 -12.837 -0.9 7.19559e-06 -3.54014
592 1 18.7874 -11.071 0.9075 9.4514e-06 -3.54013
593 1 18.433 -9.30513 2.715 1.17438e-05 -3.54012
594 1 20.9143 -12.4803 -2.7075 5.22601e-06 -3.54016
595 1 20.5598 -10.7133 -0.9 6.57829e-06 -3.54015
596 1 20.2054 -8.94636 0.9075 7.87422e-06 -3.54015
597 1 19.8509 -7.17926 2.715 8.90777e-06 -3.54014
598 1 22.3322 -10.3556 -2.7075 4.61432e-06 -3.54017
599 1 21.9778 -8.58776 -0.9 5.35117e-06 -3.54017
600 1 21.6233 -6.81975 0.9075 5.90187e-06 -3.54016
601 1 21.2688 -5.05136 2.715 6.18465e-06 -3.54016
602 1 23.7502 -8.22936 -2.7075 3.68264e-06 -3.54018
603 1 23.3957 -6.46062 -0.9 3.97391e-06 -3.54018
604 1 23.0412 -4.69151 0.9075 4.09981e-06 -3.54018
605 1 22.6867 -2.92189 2.715 4.0638e-06 -3.54017