LAMMPS data file via write_data, version 29 Aug 2024, timestep = 452, units = metal

2504 atoms
2 atom types

-55.3988719 55.3988719 xlo xhi
-18.4329573 18.4329573 ylo yhi
-3.615 3.615 zlo zhi
0 0 0 xy xz yz

Masses

1 63.55
2 63.55

Atoms # atomic

1 1 0.4345874812188484 16.51944223416481 -3.568802271013857 0 0 0
2 1 0.11969074343036112 18.212988682022097 -1.7613022697784015 0 0 0
3 1 1.1550900645149653 12.942755012506844 -3.5688022728840516 0 0 0
4 1 0.7815691649039991 14.751779918928133 -1.761302261867924 0 0 0
5 1 0.4345874812188484 16.51944223416481 0.04619772898615071 0 0 0
6 1 0.11969074343036112 18.212988682022104 1.8536977302215987 0 0 0
7 1 2.5652529996212934 15.072007311261327 -3.5688022496848246 0 0 0
8 1 2.2436210519681126 16.834040580284775 -1.7613022532861977 0 0 0
9 1 4.017107055968189 17.18287092651911 -3.568802224669993 0 0 0
10 1 0.43458758937654807 7.302963516821318 -3.5688022941555797 0 0 0
11 1 0.11969083061743646 8.996509947989917 -1.7613022858617193 0 0 0
12 1 1.9055234577684672 9.380106968189548 -3.5688022724817428 0 0 0
13 1 1.5380223380718476 11.143402574671693 -1.7613022747350717 0 0 0
14 1 1.1550900645149653 12.942755012506847 0.046197727115946725 0 0 0
15 1 0.7815691649039991 14.751779918928133 1.8536977381320752 0 0 0
16 1 3.2925884625847175 11.525067483077752 -3.568802242948994 0 0 0
17 1 2.916362690679705 13.30119952879684 -1.7613022468876716 0 0 0
18 1 2.5652529996213005 15.072007311261334 0.046197750315175826 0 0 0
19 1 2.2436210519681126 16.834040580284768 1.8536977467137965 0 0 0
20 1 4.7004007474705745 13.651084773874206 -3.5688022125823773 0 0 0
21 1 4.356372557757332 15.413790194847056 -1.7613022151299513 0 0 0
22 1 4.017107055968175 17.18287092651911 0.046197775330004236 0 0 0
23 1 6.134858671821462 15.768435605445543 -3.5688021734365805 0 0 0
24 1 5.782870312355705 17.541416558259424 -1.7613021887276847 0 0 0
25 1 7.549145581825471 17.90017118315136 -3.5688021370521326 0 0 0
26 1 1.155090145590357 3.7262763542525263 -3.5688022938370536 0 0 0
27 1 0.7815692638700895 5.535301224939754 -1.7613022902960953 0 0 0
28 1 0.43458758937654807 7.302963516821315 0.04619770584442079 0 0 0
29 1 0.11969083061742225 8.996509947989914 1.853697714138277 0 0 0
30 1 2.5652531229364044 5.85552860596643 -3.56880227065791 0 0 0
31 1 2.2436211611049828 7.617561855995323 -1.761302274774223 0 0 0
32 1 1.9055234577684672 9.380106968189548 0.04619772751825076 0 0 0
33 1 1.5380223380718476 11.143402574671693 1.8536977252649296 0 0 0
34 1 4.017107159693566 7.96639221299629 -3.5688022413785663 0 0 0
35 1 3.6651560438054247 9.74405606121477 -1.76130224590524 0 0 0
36 1 3.2925884625847175 11.525067483077759 0.04619775705100437 0 0 0
37 1 2.916362690679705 13.30119952879684 1.8536977531123238 0 0 0
38 1 5.423287731216234 10.10409246645667 -3.56880220489206 0 0 0
39 1 5.058999740146078 11.881934277929602 -1.7613022118523338 0 0 0
40 1 4.7004007474705745 13.6510847738742 0.046197787417612116 0 0 0
41 1 4.356372557757332 15.413790194847056 1.853697784870046 0 0 0
42 1 6.833920446962708 12.232148727567363 -3.5688021654096613 0 0 0
43 1 6.483154379920961 14.000614375305371 -1.7613021700251934 0 0 0
44 1 6.134858671821462 15.76843560544555 0.046197826563421786 0 0 0
45 1 5.782870312355712 17.541416558259424 1.853697811272311 0 0 0
46 1 8.259059371314585 14.353779776592244 -3.56880211404381 0 0 0
47 1 7.906087467005378 16.125705412286518 -1.7613021244096658 0 0 0
48 1 7.549145581825471 17.90017118315136 0.0461978629478636 0 0 0
49 1 9.675781132835766 16.48224126187426 -3.5688020728705188 0 0 0
50 1 9.318950314481825 18.25597893132949 -1.761302084386174 0 0 0
51 1 0.434587619449303 -1.9135150648384531 -3.568802305276799 0 0 0
52 1 0.11969086138826412 -0.21996863932800892 -1.7613023027895442 0 0 0
53 1 1.9055235064804918 0.16362836885833332 -3.5688022862975965 0 0 0
54 1 1.5380224015093518 1.9269239494919645 -1.7613022943299852 0 0 0
55 1 1.155090145590357 3.7262763542525263 0.04619770616294714 0 0 0
56 1 0.7815692638700895 5.535301224939754 1.8536977097039034 0 0 0
57 1 3.292588555271692 2.308588842576796 -3.5688022574723126 0 0 0
58 1 2.9163628033057947 4.0847208560601835 -1.7613022663971116 0 0 0
59 1 2.5652531229364044 5.855528605966427 0.04619772934208327 0 0 0
60 1 2.24362116110499 7.6175618559953335 1.8536977252257782 0 0 0
61 1 4.700400885067467 4.434606092530796 -3.5688022272439976 0 0 0
62 1 4.356372689290602 6.19731149122455 -1.7613022323469871 0 0 0
63 1 4.017107159693566 7.966392212996293 0.04619775862144331 0 0 0
64 1 3.6651560438054247 9.74405606121477 1.8536977540947641 0 0 0
65 1 6.134858792426208 6.551956919095769 -3.568802190749998 0 0 0
66 1 5.782870395304606 8.324937867601147 -1.7613022062867187 0 0 0
67 1 5.423287731216249 10.104092466456688 0.046197795107944105 0 0 0
68 1 5.058999740146078 11.881934277929599 1.8536977881476648 0 0 0
69 1 7.549145643885112 8.683692519812713 -3.56880215429379 0 0 0
70 1 7.190232987082489 10.459178386969441 -1.7613021658419552 0 0 0
71 1 6.8339204469626935 12.232148727567353 0.046197834590335864 0 0 0
72 1 6.483154379920961 14.000614375305386 1.853697829974798 0 0 0
73 1 8.963056206522296 10.812220922520488 -3.5688021058962733 0 0 0
74 1 8.610165941692657 12.58327981421877 -1.7613021120679107 0 0 0
75 1 8.259059371314585 14.353779776592244 0.046197885956180615 0 0 0
76 1 7.906087467005378 16.125705412286504 1.853697875590331 0 0 0
77 1 10.384358328558463 12.936750332596787 -3.5688020426494145 0 0 0
78 1 10.031065586785388 14.708888951665596 -1.761302061532373 0 0 0
79 1 9.67578113283578 16.48224126187426 0.04619792712948884 0 0 0
80 1 9.318950314481825 18.255978931329476 1.8536979156138194 0 0 0
81 1 11.802152543193799 15.06422005158247 -3.5688019919121827 0 0 0
82 1 11.446648870383953 16.837374464114003 -1.7613020180402121 0 0 0
83 1 13.218761562370716 17.191709332330237 -3.5688019530080264 0 0 0
84 1 1.1550901625376895 -5.490202233332912 -3.5688022938014017 0 0 0
85 1 0.7815692913708716 -3.6811773589817314 -1.7613022936991931 0 0 0
86 1 0.434587619449303 -1.9135150648384531 0.046197694723193766 0 0 0
87 1 0.11969086138826412 -0.21996863932800892 1.85369769721045 0 0 0
88 1 2.565253150031971 -3.360949980683394 -3.5688022780555686 0 0 0
89 1 2.243621197791235 -1.598916730403392 -1.7613022853865459 0 0 0
90 1 1.905523506480506 0.16362836885834042 0.04619771370240608 0 0 0
91 1 1.538022401509366 1.9269239494919645 1.8536977056700146 0 0 0
92 1 4.017107211313046 -1.2500863835562157 -3.568802252551697 0 0 0
93 1 3.665156115066324 0.5275774489409173 -1.7613022592320982 0 0 0
94 1 3.292588555271692 2.3085888425768033 0.04619774252768609 0 0 0
95 1 2.9163628033057947 4.0847208560601835 1.8536977336028866 0 0 0
96 1 5.4232878253012515 0.8876138446014963 -3.5688022176817076 0 0 0
97 1 5.058999859176311 2.6654556271034444 -1.7613022260219968 0 0 0
98 1 4.700400885067467 4.434606092530796 0.046197772756000566 0 0 0
99 1 4.356372689290609 6.197311491224546 1.8536977676530106 0 0 0
100 1 6.833920590329775 3.0156700750827667 -3.568802182133234 0 0 0
101 1 6.483154524370661 4.784135702363965 -1.7613021871399897 0 0 0
102 1 6.134858792426208 6.551956919095765 0.046197809249997696 0 0 0
103 1 5.782870395304585 8.324937867601143 1.8536977937132746 0 0 0
104 1 8.259059507798142 5.137301125664969 -3.5688021344957566 0 0 0
105 1 7.906087571459864 6.909226754827042 -1.761302142998161 0 0 0
106 1 7.549145643885112 8.683692519812713 0.046197845706217766 0 0 0
107 1 7.190232987082489 10.459178386969437 1.853697834158041 0 0 0
108 1 9.675781221400868 7.265762631996285 -3.568802089207683 0 0 0
109 1 9.318950362700647 9.039500291785853 -1.7613020958660293 0 0 0
110 1 8.963056206522296 10.812220922520492 0.0461978941037151 0 0 0
111 1 8.610165941692657 12.58327981421876 1.8536978879320902 0 0 0
112 1 11.09128928193455 9.393597519520473 -3.56880203421508 0 0 0
113 1 10.737225298243047 11.1653612055295 -1.7613020365219207 0 0 0
114 1 10.384358328558463 12.936750332596787 0.04619795735058552 0 0 0
115 1 10.031065586785388 14.708888951665596 1.8536979384676255 0 0 0
116 1 12.51060882075673 11.519311958813478 -3.568801979694862 0 0 0
117 1 12.156799377711295 13.291436908324666 -1.761301981250941 0 0 0
118 1 11.802152543193799 15.06422005158247 0.04619800808781707 0 0 0
119 1 11.446648870383953 16.83737446411399 1.8536979819597812 0 0 0
120 1 13.928635540426939 13.646323025571501 -3.568801922626138 0 0 0
121 1 13.573707120294145 15.41907472098912 -1.7613019398594894 0 0 0
122 1 13.21876156237073 17.19170933233023 0.04619804699197333 0 0 0
123 1 15.345853108453198 15.773539604545629 -3.5688018830561288 0 0 0
124 1 14.991366316326577 17.54588274961929 -1.761301895880787 0 0 0
125 1 16.76393539441338 17.900178553061895 -3.568801831330376 0 0 0
126 1 0.4345875551885996 -11.129993666690869 -3.5688022890654625 0 0 0
127 1 0.11969082111576057 -9.436447229408827 -1.761302287418786 0 0 0
128 1 1.9055234697674592 -9.052850237899806 -3.5688022738512175 0 0 0
129 1 1.5380223942200857 -7.289554644844699 -1.7613022866282522 0 0 0
130 1 1.1550901625376895 -5.490202233332905 0.04619770619859707 0 0 0
131 1 0.7815692913708858 -3.6811773589817314 1.8536977063008047 0 0 0
132 1 3.292588551265716 -6.9078897655194105 -3.5688022547481233 0 0 0
133 1 2.916362818415571 -5.13175773716808 -1.7613022688023579 0 0 0
134 1 2.5652531500319853 -3.3609499806833956 0.046197721944437393 0 0 0
135 1 2.243621197791228 -1.5989167304033955 1.8536977146134543 0 0 0
136 1 4.7004008975399145 -4.7818725024667526 -3.5688022330279763 0 0 0
137 1 4.356372722688199 -3.0191671005428944 -1.7613022406673282 0 0 0
138 1 4.017107211313046 -1.2500863835562228 0.04619774744830304 0 0 0
139 1 3.665156115066324 0.5275774489409102 1.8536977407679076 0 0 0
140 1 6.134858835605812 -2.6645216838287737 -3.568802201246238 0 0 0
141 1 5.782870465964756 -0.8915407370574897 -1.7613022196921764 0 0 0
142 1 5.423287825301266 0.8876138446014963 0.04619778231828801 0 0 0
143 1 5.058999859176325 2.6654556271034444 1.853697773978 0 0 0
144 1 7.549145730443179 -0.5327860916147067 -3.5688021692536425 0 0 0
145 1 7.1902331062803455 1.2426997604182475 -1.761302180949274 0 0 0
146 1 6.833920590329775 3.015670075082774 0.046197817866767826 0 0 0
147 1 6.483154524370676 4.784135702363965 1.853697812860015 0 0 0
148 1 8.963056338361781 1.5957422948375246 -3.5688021262048344 0 0 0
149 1 8.610166090951807 3.3668011730239193 -1.7613021324449765 0 0 0
150 1 8.259059507798142 5.137301125664958 0.04619786550424177 0 0 0
151 1 7.906087571459864 6.909226754827046 1.853697857001844 0 0 0
152 1 10.384358465849104 3.7202717104586043 -3.5688020658430215 0 0 0
153 1 10.031065708902858 5.492410327209154 -1.7613020810930848 0 0 0
154 1 9.675781221400882 7.265762631996278 0.04619791079232353 0 0 0
155 1 9.318950362700647 9.03950029178585 1.853697904133979 0 0 0
156 1 11.802152648033754 5.847741445608957 -3.568802003770922 0 0 0
157 1 11.44664894931364 7.620895857273879 -1.7613020262459864 0 0 0
158 1 11.09128928193455 9.39359751952048 0.0461979657849256 0 0 0
159 1 10.737225298243047 11.165361205529496 1.8536979634780795 0 0 0
160 1 13.21876163623206 7.975230735834163 -3.5688019539826357 0 0 0
161 1 12.864374671322366 9.747427882701924 -1.7613019679451491 0 0 0
162 1 12.51060882075673 11.519311958813468 0.046198020305134244 0 0 0
163 1 12.156799377711295 13.291436908324659 1.853698018749053 0 0 0
164 1 14.637213814414494 10.10157521272603 -3.5688019017911063 0 0 0
165 1 14.283110089924264 11.873805974814704 -1.761301913414776 0 0 0
166 1 13.928635540426953 13.646323025571501 0.04619807737385869 0 0 0
167 1 13.573707120294145 15.419074720989112 1.853698060140512 0 0 0
168 1 16.05524036349577 12.228440523392099 -3.5688018534992967 0 0 0
169 1 15.70057871430248 14.001004016188002 -1.7613018719242644 0 0 0
170 1 15.345853108453198 15.773539604545629 0.046198116943869015 0 0 0
171 1 14.991366316326562 17.54588274961929 1.8536981041192158 0 0 0
172 1 17.47277689921988 14.355489109763756 -3.568801816227199 0 0 0
173 1 17.118271769091123 16.127881971981576 -1.761301823466004 0 0 0
174 1 16.763935394413366 17.90017855306191 0.04619816866961805 0 0 0
175 1 18.890704853607502 16.48225728592387 -3.5688017594523993 0 0 0
176 1 18.536336281826493 18.254606357756703 -1.7613017684706014 0 0 0
177 1 1.1550900648679914 -14.706680862458686 -3.5688022819506258 0 0 0
178 1 0.781569209207106 -12.8976559732303 -1.7613022785511319 0 0 0
179 1 0.4345875551885996 -11.129993666690865 0.046197710934542044 0 0 0
180 1 0.11969082111576768 -9.436447229408833 1.8536977125812142 0 0 0
181 1 2.5652530646034606 -12.577428601719651 -3.568802262378707 0 0 0
182 1 2.243621135295463 -10.815395346473787 -1.7613022680490804 0 0 0
183 1 1.905523469767445 -9.052850237899804 0.04619772614878886 0 0 0
184 1 1.5380223942200715 -7.2895546448446975 1.8536977133717456 0 0 0
185 1 4.017107153810656 -10.466565013886163 -3.568802238548346 0 0 0
186 1 3.6651560840405892 -8.688901167488638 -1.7613022471526074 0 0 0
187 1 3.292588551265716 -6.907889765519416 0.04619774525188132 0 0 0
188 1 2.9163628184155783 -5.131757737168073 1.8536977311976375 0 0 0
189 1 5.423287794834465 -8.328864784889944 -3.568802209431847 0 0 0
190 1 5.058999852723993 -6.551022984818731 -1.761302222337486 0 0 0
191 1 4.700400897539907 -4.781872502466754 0.04619776697202818 0 0 0
192 1 4.356372722688199 -3.019167100542896 1.8536977593326704 0 0 0
193 1 6.833920575584209 -6.20080854426625 -3.5688021786610453 0 0 0
194 1 6.483154538760459 -4.432342903953902 -1.7613021918980964 0 0 0
195 1 6.134858835605812 -2.6645216838287737 0.046197798753764535 0 0 0
196 1 5.78287046596477 -0.8915407370574933 1.8536977803078292 0 0 0
197 1 8.259059527984185 -4.079177499597606 -3.5688021411228825 0 0 0
198 1 7.906087625664362 -2.3072518590015356 -1.7613021552343378 0 0 0
199 1 7.549145730443179 -0.5327860916147067 0.04619783074635183 0 0 0
200 1 7.1902331062803455 1.2426997604182475 1.8536978190507272 0 0 0
201 1 9.67578127933912 -1.9507159977718196 -3.5688021040281663 0 0 0
202 1 9.31895045971045 -0.17697833016363518 -1.7613021150014945 0 0 0
203 1 8.963056338361767 1.595742294837521 0.046197873795171436 0 0 0
204 1 8.610166090951807 3.3668011730239122 1.8536978675550233 0 0 0
205 1 11.091289381190052 0.17711888720420177 -3.5688020509706315 0 0 0
206 1 10.737225426610536 1.9488825783447865 -1.7613020577957428 0 0 0
207 1 10.384358465849104 3.7202717104586007 0.04619793415697686 0 0 0
208 1 10.031065708902858 5.492410327209143 1.853697918906915 0 0 0
209 1 12.51060893623594 2.302833332286742 -3.568801994882845 0 0 0
210 1 12.156799495029546 4.074958296062565 -1.7613019989706211 0 0 0
211 1 11.802152648033768 5.847741445608968 0.04619799622907733 0 0 0
212 1 11.44664894931364 7.6208958572738865 1.853697973754018 0 0 0
213 1 13.9286356387519 4.429844420427077 -3.56880192865631 0 0 0
214 1 13.573707212461926 6.202596122422168 -1.7613019445019145 0 0 0
215 1 13.21876163623206 7.975230735834149 0.0461980460173689 0 0 0
216 1 12.864374671322366 9.747427882701924 1.8536980320548557 0 0 0
217 1 15.345853191295362 6.5570610117202115 -3.568801881674647 0 0 0
218 1 14.991366381063841 8.329404156218668 -1.7613018908223663 0 0 0
219 1 14.637213814414494 10.101575212726043 0.04619809820888274 0 0 0
220 1 14.283110089924264 11.873805974814704 1.8536980865852242 0 0 0
221 1 16.763935461306005 8.683699967847872 -3.5688018311757395 0 0 0
222 1 16.409662445670506 10.45600497067571 -1.7613018438935306 0 0 0
223 1 16.05524036349577 12.228440523392088 0.04619814650069935 0 0 0
224 1 15.700578714302466 14.001004016187995 1.8536981280757279 0 0 0
225 1 18.1819131609695 10.810533065006648 -3.56880178061964 0 0 0
226 1 17.827372838996425 12.583009351713333 -1.7613017962626445 0 0 0
227 1 17.472776899219866 14.355489109763777 0.0461981837728037 0 0 0
228 1 17.118271769091123 16.12788197198157 1.8536981765340026 0 0 0
229 1 19.599614752838704 12.93749037790288 -3.5688017324089953 0 0 0
230 1 19.245119267123926 14.709899391122544 -1.7613017499629637 0 0 0
231 1 18.890704853607517 16.482257285923875 0.046198240547605095 0 0 0
232 1 18.536336281826493 18.254606357756696 1.8536982315294028 0 0 0
233 1 21.01748528408814 15.064315356593422 -3.568801684317749 0 0 0
234 1 20.663067992032765 16.836691389249932 -1.761301693340207 0 0 0
235 1 22.43537857487192 17.191156265963397 -3.568801640217623 0 0 0
236 1 1.9055233735543027 -18.26932890029337 -3.568802258491721 0 0 0
237 1 1.5380222935322507 -16.506033293463837 -1.761302271198154 0 0 0
238 1 1.1550900648679914 -14.706680862458684 0.04619771804937491 0 0 0
239 1 0.781569209207106 -12.897655973230293 1.853697721448876 0 0 0
240 1 3.292588446392074 -16.124368409235625 -3.5688022419173016 0 0 0
241 1 2.9163627199255373 -14.34823637361225 -1.7613022555932427 0 0 0
242 1 2.5652530646034606 -12.577428601719653 0.04619773762129284 0 0 0
243 1 2.2436211352954487 -10.815395346473782 1.8536977319509167 0 0 0
244 1 4.700400797948163 -13.998351144710908 -3.568802217756278 0 0 0
245 1 4.356372640703846 -12.235645734745129 -1.7613022263770517 0 0 0
246 1 4.017107153810642 -10.46656501388616 0.04619776145165398 0 0 0
247 1 3.6651560840406034 -8.688901167488632 1.8536977528473915 0 0 0
248 1 6.134858758255469 -11.881000332567801 -3.5688021854268746 0 0 0
249 1 5.782870410687096 -10.108019378957156 -1.7613022044609798 0 0 0
250 1 5.423287794834465 -8.328864784889936 0.04619779056815519 0 0 0
251 1 5.058999852723993 -6.551022984818733 1.8536977776625152 0 0 0
252 1 7.5491456729562785 -9.749264748353866 -3.5688021554064226 0 0 0
253 1 7.1902330670839945 -7.973778879296216 -1.76130217078927 0 0 0
254 1 6.833920575584209 -6.200808544266248 0.04619782133895651 0 0 0
255 1 6.483154538760473 -4.432342903953906 1.853697808101902 0 0 0
256 1 8.963056292371789 -7.620736357413094 -3.5688021186333008 0 0 0
257 1 8.610166075880443 -5.849677463992153 -1.761302131364216 0 0 0
258 1 8.25905952798417 -4.079177499597611 0.04619785887711046 0 0 0
259 1 7.906087625664362 -2.3072518590015356 1.8536978447656547 0 0 0
260 1 10.384358451500447 -5.496206946139928 -3.5688020684794957 0 0 0
261 1 10.031065727313518 -3.7240683157471945 -1.761302089504476 0 0 0
262 1 9.675781279339105 -1.9507159977718125 0.046197895971824866 0 0 0
263 1 9.318950459710436 -0.17697833016362097 1.8536978849985057 0 0 0
264 1 11.802152670186658 -3.368737211421049 -3.5688020117932022 0 0 0
265 1 11.446649008457328 -1.5955827900276276 -1.7613020390612735 0 0 0
266 1 11.091289381190052 0.17711888720419822 0.04619794902937112 0 0 0
267 1 10.73722542661055 1.94888257834479 1.8536979422042577 0 0 0
268 1 13.218761689568893 -1.2412479180859215 -3.5688019617694433 0 0 0
269 1 12.864374759386607 0.5309492418084538 -1.7613019803792371 0 0 0
270 1 12.510608936235926 2.3028333322867454 0.04619800511715068 0 0 0
271 1 12.156799495029546 4.074958296062576 1.8536980010293749 0 0 0
272 1 14.637213887053022 0.8850965752245266 -3.568801906689641 0 0 0
273 1 14.283110181819168 2.6573273548145693 -1.761301920078769 0 0 0
274 1 13.928635638751885 4.429844420427081 0.046198071343692075 0 0 0
275 1 13.57370721246194 6.202596122422179 1.8536980554980782 0 0 0
276 1 16.055240434470022 3.011961912832927 -3.5688018546609332 0 0 0
277 1 15.700578797278837 4.7845254161028095 -1.7613018694597224 0 0 0
278 1 15.345853191295348 6.5570610117202115 0.046198118325354434 0 0 0
279 1 14.991366381063841 8.329404156218661 1.8536981091776323 0 0 0
280 1 17.47277697271025 5.139010515210764 -3.568801816000665 0 0 0
281 1 17.118271846063962 6.911403387477723 -1.7613018198314494 0 0 0
282 1 16.76393546130599 8.683699967847861 0.046198168824258125 0 0 0
283 1 16.40966244567052 10.45600497067571 1.8536981561064663 0 0 0
284 1 18.89070492127813 7.265778709530412 -3.568801760146948 0 0 0
285 1 18.53633634885624 9.038127784908571 -1.7613017680218521 0 0 0
286 1 18.181913160969515 10.810533065006641 0.04619821938035276 0 0 0
287 1 17.82737283899641 12.583009351713333 1.853698203737355 0 0 0
288 1 20.308632922427876 9.392611229991562 -3.5688017071672262 0 0 0
289 1 19.954142164591005 11.165045765011435 -1.7613017202807912 0 0 0
290 1 19.59961475283869 12.93749037790289 0.046198267590997225 0 0 0
291 1 19.245119267123926 14.709899391122544 1.8536982500370356 0 0 0
292 1 21.72641469370579 11.519519213098757 -3.5688016619483047 0 0 0
293 1 21.371931137719443 13.291929958984358 -1.7613016734634754 0 0 0
294 1 21.01748528408814 15.064315356593436 0.04619831568224458 0 0 0
295 1 20.663067992032765 16.83669138924994 1.8536983066597847 0 0 0
296 1 23.14426654714461 13.646366768066446 -3.5688016198317785 0 0 0
297 1 22.789824703069968 15.418757157657783 -1.761301626997417 0 0 0
298 1 22.43537857487192 17.191156265963397 0.04619835978236817 0 0 0
299 1 24.562138129055867 15.773215518744667 -3.5688015820847916 0 0 0
300 1 24.207673394128207 17.545625226439622 -1.76130159424076 0 0 0
301 1 25.979973533748407 17.90008774360002 -3.5688015524547714 0 0 0
302 1 1.9055233735543027 -18.26932890029337 0.046197741508270614 0 0 0
303 1 1.5380222935322507 -16.506033293463837 1.8536977288018401 0 0 0
304 1 3.6651559812975094 -17.905379817582656 -1.7613022329581454 0 0 0
305 1 3.292588446392074 -16.12436840923563 0.04619775808270584 0 0 0
306 1 2.9163627199255373 -14.348236373612258 1.853697744406756 0 0 0
307 1 5.4232876938440455 -17.545343441064492 -3.5688021935228034 0 0 0
308 1 5.058999748787848 -15.767501634906957 -1.7613022071545208 0 0 0
309 1 4.700400797948149 -13.998351144710902 0.04619778224371478 0 0 0
310 1 4.356372640703846 -12.235645734745129 1.853697773622937 0 0 0
311 1 6.833920473460225 -15.41728721077507 -3.568802159223813 0 0 0
312 1 6.483154443570584 -13.648821560797538 -1.7613021735527867 0 0 0
313 1 6.134858758255469 -11.8810003325678 0.04619781457312015 0 0 0
314 1 5.782870410687096 -10.108019378957158 1.8536977955390208 0 0 0
315 1 8.259059432906632 -13.295656172268941 -3.5688021213676184 0 0 0
316 1 7.906087546964862 -11.523730525808734 -1.7613021395506652 0 0 0
317 1 7.5491456729562785 -9.749264748353863 0.046197844593584954 0 0 0
318 1 7.1902330670839945 -7.973778879296219 1.8536978292107258 0 0 0
319 1 9.675781196242852 -11.167194675477209 -3.568802091154156 0 0 0
320 1 9.318950392066057 -9.393456998103597 -1.7613021011352206 0 0 0
321 1 8.963056292371789 -7.620736357413104 0.04619788136670191 0 0 0
322 1 8.610166075880443 -5.849677463992158 1.8536978686357846 0 0 0
323 1 11.091289304330061 -9.039359788536432 -3.568802045119277 0 0 0
324 1 10.73722537735216 -7.267596086012766 -1.7613020546722857 0 0 0
325 1 10.38435845150046 -5.4962069461399246 0.04619793152050134 0 0 0
326 1 10.031065727313518 -3.7240683157471857 1.8536979104955205 0 0 0
327 1 12.510608885203169 -6.9136453457608305 -3.5688019926681105 0 0 0
328 1 12.156799480455945 -5.141520369895726 -1.7613020013843055 0 0 0
329 1 11.802152670186658 -3.368737211421049 0.04619798820679559 0 0 0
330 1 11.446649008457328 -1.595582790027624 1.8536979609387223 0 0 0
331 1 13.928635623242315 -4.786634260796012 -3.5688019271121165 0 0 0
332 1 13.573707230032483 -3.013882542718205 -1.761301946767624 0 0 0
333 1 13.218761689568893 -1.241247918085918 0.046198038230558236 0 0 0
334 1 12.864374759386592 0.5309492418084396 1.853698019620763 0 0 0
335 1 15.345853198348621 -2.6594176605149364 -3.5688018790063523 0 0 0
336 1 14.9913664225584 -0.8870744979935168 -1.7613018926219777 0 0 0
337 1 14.637213887053008 0.885096575224523 0.04619809331036228 0 0 0
338 1 14.283110181819168 2.6573273548145657 1.8536980799212373 0 0 0
339 1 16.76393548737407 -0.5327786863492712 -3.5688018282824885 0 0 0
340 1 16.40966249849012 1.239526340344785 -1.7613018434659904 0 0 0
341 1 16.055240434470022 3.01196191283292 0.04619814533906946 0 0 0
342 1 15.700578797278837 4.7845254161028095 1.8536981305402918 0 0 0
343 1 18.18191318863306 1.5940544336385898 -3.5688017821026974 0 0 0
344 1 17.8273728928025 3.3665307415548327 -1.7613017942836433 0 0 0
345 1 17.472776972710264 5.13901051521076 0.0461981839993312 0 0 0
346 1 17.118271846063948 6.911403387477719 1.8536981801685533 0 0 0
347 1 19.599614789183335 3.7210117657719444 -3.5688017364116806 0 0 0
348 1 19.245119326585453 5.493420803285286 -1.7613017503693411 0 0 0
349 1 18.89070492127813 7.265778709530412 0.04619823985304358 0 0 0
350 1 18.536336348856224 9.038127784908575 1.8536982319781425 0 0 0
351 1 21.017485325546602 5.847836767580578 -3.56880168992316 0 0 0
352 1 20.663068051957367 7.620212813256799 -1.7613016977429696 0 0 0
353 1 20.30863292242786 9.392611229991562 0.046198292832768925 0 0 0
354 1 19.954142164591005 11.165045765011428 1.8536982797192005 0 0 0
355 1 22.435378639233946 7.974677676201402 -3.5688016454259595 0 0 0
356 1 22.08090745062931 9.74709445515094 -1.7613016554488885 0 0 0
357 1 21.72641469370579 11.519519213098757 0.04619833805169 0 0 0
358 1 21.371931137719443 13.291929958984355 1.8536983265365214 0 0 0
359 1 23.853197932967376 10.101561038754657 -3.5688016064038304 0 0 0
360 1 23.498724091610427 11.873969991663277 -1.7613016213216466 0 0 0
361 1 23.14426654714461 13.646366768066446 0.0461983801682391 0 0 0
362 1 22.789824703069982 15.418757157657783 1.8536983730025736 0 0 0
363 1 25.271046385911163 12.22841633227123 -3.568801581980973 0 0 0
364 1 24.916592588672287 14.000814086162631 -1.7613015798279987 0 0 0
365 1 24.562138129055867 15.773215518744667 0.04619841791520195 0 0 0
366 1 24.207673394128207 17.545625226439615 1.8536984057592443 0 0 0
367 1 26.68890497634841 14.355270465956377 -3.5688015433288403 0 0 0
368 1 26.33444087552813 16.127678376954545 -1.761301546989844 0 0 0
369 1 25.97997353374842 17.900087743600036 0.046198447545234514 0 0 0
370 1 28.106745016860913 16.48213942272915 -3.568801523954645 0 0 0
371 1 27.752284332553216 18.254543203402147 -1.7613015340786622 0 0 0
372 1 3.6651559812975094 -17.905379817582656 1.8536977670418504 0 0 0
373 1 5.423287693844038 -17.545343441064492 0.0461978064771955 0 0 0
374 1 5.058999748787848 -15.767501634906958 1.8536977928454852 0 0 0
375 1 7.190232969399489 -17.19025754953431 -1.761302152467467 0 0 0
376 1 6.833920473460225 -15.417287210775081 0.04619784077619569 0 0 0
377 1 6.483154443570577 -13.648821560797542 1.853697826447209 0 0 0
378 1 8.963056200818443 -16.83721503246297 -3.568802099426956 0 0 0
379 1 8.61016597448932 -15.066156139142267 -1.7613021116848797 0 0 0
380 1 8.259059432906618 -13.295656172268938 0.04619787863237672 0 0 0
381 1 7.906087546964862 -11.52373052580874 1.85369786044933 0 0 0
382 1 10.384358357898634 -14.712685626828181 -3.568802047757607 0 0 0
383 1 10.03106563336533 -12.94054699836516 -1.7613020719935997 0 0 0
384 1 9.675781196242866 -11.167194675477207 0.04619790884585023 0 0 0
385 1 9.318950392066057 -9.393456998103598 1.853697898864778 0 0 0
386 1 11.802152574331444 -12.585215896484126 -3.5688020025022142 0 0 0
387 1 11.44664891591917 -10.81206147358411 -1.7613020308086482 0 0 0
388 1 11.091289304330061 -9.039359788536414 0.046197954880717394 0 0 0
389 1 10.73722537735216 -7.267596086012768 1.8536979453277092 0 0 0
390 1 13.218761595113477 -10.457726606006268 -3.5688019593256524 0 0 0
391 1 12.864374680786938 -8.685529444723754 -1.7613019784863608 0 0 0
392 1 12.510608885203183 -6.9136453457608305 0.046198007331895434 0 0 0
393 1 12.156799480455945 -5.1415203698957335 1.8536979986156912 0 0 0
394 1 14.63721380918264 -8.331382122474286 -3.56880190509891 0 0 0
395 1 14.283110130218404 -6.5591513392564735 -1.7613019180789335 0 0 0
396 1 13.928635623242315 -4.78663426079601 0.046198072887882205 0 0 0
397 1 13.573707230032497 -3.013882542718216 1.8536980532323706 0 0 0
398 1 16.055240381561603 -6.204516794336557 -3.56880185176864 0 0 0
399 1 15.700578770490438 -4.4319532757453395 -1.7613018670859015 0 0 0
400 1 15.345853198348621 -2.659417660514926 0.046198120993651844 0 0 0
401 1 14.9913664225584 -0.8870744979935239 1.8536981073780257 0 0 0
402 1 17.47277693106487 -4.077468181476696 -3.5688018114827207 0 0 0
403 1 17.11827183675196 -2.305075290411729 -1.7613018169782602 0 0 0
404 1 16.7639354873741 -0.5327786863492783 0.046198171717516986 0 0 0
405 1 16.40966249849012 1.2395263403447885 1.853698156534014 0 0 0
406 1 18.890704892162432 -1.9506999738804183 -3.56880175896999 0 0 0
407 1 18.53633634988141 -0.17835087403487293 -1.761301767541231 0 0 0
408 1 18.18191318863306 1.5940544336385791 0.046198217897293996 0 0 0
409 1 17.8273728928025 3.3665307415548327 1.8536982057163613 0 0 0
410 1 20.30863289983894 0.17613257149811545 -3.568801710409929 0 0 0
411 1 19.954142167995997 1.948567132042875 -1.76130172332384 0 0 0
412 1 19.599614789183335 3.7210117657719444 0.046198263588312305 0 0 0
413 1 19.245119326585453 5.493420803285307 1.8536982496306467 0 0 0
414 1 21.726414680839014 2.3030405824236375 -3.568801670794052 0 0 0
415 1 21.371931152589596 4.075451348197117 -1.7613016787253715 0 0 0
416 1 21.017485325546602 5.847836767580585 0.04619831007685414 0 0 0
417 1 20.663068051957353 7.620212813256799 1.8536983022570306 0 0 0
418 1 23.144266550329817 4.4298881568403345 -3.5688016283662756 0 0 0
419 1 22.78982473784231 6.20227855744524 -1.7613016339255756 0 0 0
420 1 22.43537863923396 7.974677676201406 0.046198354574039396 0 0 0
421 1 22.08090745062931 9.747094455150933 1.8536983445511301 0 0 0
422 1 24.562138168939313 6.5567369022387965 -3.5688015879897668 0 0 0
423 1 24.20767346631628 8.329146617006575 -1.76130160206809 0 0 0
424 1 23.853197932967376 10.101561038754642 0.046198393596160764 0 0 0
425 1 23.498724091610413 11.873969991663284 1.8536983786783576 0 0 0
426 1 25.97997361867273 8.683609113533283 -3.5688015620321094 0 0 0
427 1 25.625506964907345 10.45601551981759 -1.7613015730501007 0 0 0
428 1 25.27104638591115 12.22841633227123 0.04619841801903408 0 0 0
429 1 24.916592588672287 14.000814086162631 1.8536984201719966 0 0 0
430 1 27.39782515766582 10.81046543331712 -3.5688015510100626 0 0 0
431 1 27.043365812523106 12.582866422240716 -1.761301547068553 0 0 0
432 1 26.68890497634841 14.355270465956384 0.04619845667117017 0 0 0
433 1 26.33444087552816 16.12767837695456 1.853698453010159 0 0 0