#LAMMPS data file
160 atoms
2 atom types
-6.1401644859 5.2217820766 xlo xhi
-18.4329573000 18.4329573000 ylo yhi
-3.6050000000 3.6150000000 zlo zhi
0.0 0.0 0.0 xy xz yz

Atoms # atomic

1912 1 -2.6741078719 14.7498560425 -1.8075039767
1913 1 -2.4151736860 16.7056705574 -0.0000039643
1914 1 -0.8879401671 16.3600411468 -1.8075034090
2005 1 -3.1749759116 11.4102549142 -1.8075042490
2006 1 -2.8040150437 13.0046326181 -0.0000041198
2007 1 -2.6741078719 14.7498560425 1.8074960233
2008 1 -2.4151736860 16.7056705574 3.6149960357
2009 1 -0.8879402433 12.7291829219 -1.8075034427
2010 1 -0.8879402154 14.5915504191 -0.0000035173
2011 1 -0.8879401671 16.3600411468 1.8074965910
2093 1 -3.6763521741 9.6616982103 -0.0000043538
2094 1 -3.1749759116 11.4102549142 1.8074957510
2095 1 -2.8040150437 13.0046326181 3.6149958802
2096 1 -2.0596469999 9.2965639579 -1.8075041723
2097 1 -0.8879404771 10.8716185805 -0.0000033811
2098 1 -0.8879402433 12.7291829219 1.8074965573
2099 1 -0.8879402154 14.5915504191 3.6149964827
2173 1 -3.6763521741 9.6616982103 3.6149956462
2174 1 -2.6741078677 5.5333773960 -1.8075039767
2175 1 -2.4151736853 7.4891919054 -0.0000039642
2176 1 -2.0596469999 9.2965639579 1.8074958277
2177 1 -0.8879404771 10.8716185805 3.6149966189
2178 1 -0.8879401671 7.1435624916 -1.8075034092
2243 1 -3.1749759113 2.1937762658 -1.8075042490
2244 1 -2.8040150444 3.7881539658 -0.0000041198
2245 1 -2.6741078677 5.5333773960 1.8074960233
2246 1 -2.4151736853 7.4891919054 3.6149960358
2247 1 -0.8879402433 3.5127042711 -1.8075034427
2248 1 -0.8879402154 5.3750717721 -0.0000035173
2249 1 -0.8879401671 7.1435624916 1.8074965908
2305 1 -3.6763521709 0.4452195570 -0.0000043538
2306 1 -3.1749759113 2.1937762658 1.8074957510
2307 1 -2.8040150444 3.7881539658 3.6149958802
2308 1 -2.0596470050 0.0800853054 -1.8075041723
2309 1 -0.8879404770 1.6551399314 -0.0000033811
2310 1 -0.8879402433 3.5127042711 1.8074965573
2311 1 -0.8879402154 5.3750717721 3.6149964827
2359 1 -3.6763521709 0.4452195570 3.6149956462
2360 1 -2.6741078727 -3.6831012582 -1.8075039767
2361 1 -2.4151736866 -1.7272867416 -0.0000039642
2362 1 -2.0596470050 0.0800853054 1.8074958277
2363 1 -0.8879404770 1.6551399314 3.6149966189
2364 1 -0.8879401671 -2.0729161520 -1.8075034092
2403 1 -3.1749759115 -7.0227023860 -1.8075042490
2404 1 -2.8040150435 -5.4283246816 -0.0000041198
2405 1 -2.6741078727 -3.6831012582 1.8074960233
2406 1 -2.4151736866 -1.7272867416 3.6149960358
2407 1 -0.8879402433 -5.7037743781 -1.8075034427
2408 1 -0.8879402154 -3.8414068818 -0.0000035172
2409 1 -0.8879401671 -2.0729161520 1.8074965908
2439 1 -3.6763521726 -8.7712590910 -0.0000043538
2440 1 -3.1749759115 -7.0227023860 1.8074957510
2441 1 -2.8040150435 -5.4283246816 3.6149958802
2442 1 -2.0596470028 -9.1363933434 -1.8075041723
2443 1 -0.8879404771 -7.5613387191 -0.0000033811
2444 1 -0.8879402433 -5.7037743781 1.8074965573
2445 1 -0.8879402154 -3.8414068818 3.6149964828
2467 1 -3.6763521726 -8.7712590910 3.6149956462
2468 1 -2.6741078714 -12.8995799072 -1.8075039767
2469 1 -2.4151736858 -10.9437653929 -0.0000039642
2470 1 -2.0596470028 -9.1363933434 1.8074958277
2471 1 -0.8879404771 -7.5613387191 3.6149966189
2472 1 -0.8879401671 -11.2893948037 -1.8075034092
2485 1 -3.1749759114 -16.2391810358 -1.8075042490
2486 1 -2.8040150437 -14.6448033321 -0.0000041198
2487 1 -2.6741078714 -12.8995799072 1.8074960233
2488 1 -2.4151736858 -10.9437653929 3.6149960358
2489 1 -0.8879402433 -14.9202530283 -1.8075034427
2490 1 -0.8879402155 -13.0578855306 -0.0000035172
2491 1 -0.8879401671 -11.2893948037 1.8074965908
2495 1 -3.6763521721 -17.9877377414 -0.0000043538
2496 1 -3.1749759114 -16.2391810358 1.8074957510
2497 1 -2.8040150437 -14.6448033321 3.6149958802
2498 1 -2.0596470035 -18.3528719935 -1.8075041723
2499 1 -0.8879404771 -16.7778173690 -0.0000033811
2500 1 -0.8879402433 -14.9202530283 1.8074965573
2501 1 -0.8879402155 -13.0578855306 3.6149964828
2502 1 -3.6763521721 -17.9877377414 3.6149956462
2503 1 -2.0596470035 -18.3528719935 1.8074958277
2504 1 -0.8879404771 -16.7778173690 3.6149966189
1912 2 -0.9409374124 14.4613364341 -3.5688022661
1913 2 -1.4423137064 16.2098932360 -1.7613022841
1914 2 -0.5411907642 -15.0843936572 1.8536977113
2006 2 -2.5576427394 14.0962023053 -1.7613022721
2007 2 -0.9409374124 14.4613364341 0.0461977339
2008 2 -1.4423137064 16.2098932360 1.8536977159
2009 2 -2.2021160012 12.2888302107 -3.5688022625
2010 2 -0.5411907347 12.5650421823 -1.7613022818
2011 2 -0.2257888106 -16.9092096428 0.0461977246
2095 2 -2.5576427394 14.0962023053 1.8536977279
2096 2 -1.8132746785 8.5877921413 -3.5688022976
2097 2 -1.9431819178 10.3330156442 -1.7613022845
2098 2 -2.2021160012 12.2888302107 0.0461977375
2099 2 -0.5411907347 12.5650421823 1.8536977182
2174 2 -0.9409373455 5.2448577546 -3.5688022974
2175 2 -1.4423136036 6.9934145328 -1.7613023062
2176 2 -1.8132746785 8.5877921413 0.0461977024
2177 2 -1.9431819178 10.3330156442 1.8536977155
2178 2 -0.2257887544 10.7402261973 -3.5688022782
2244 2 -2.5576427001 4.8797236508 -1.7613023062
2245 2 -0.9409373455 5.2448577546 0.0461977026
2246 2 -1.4423136036 6.9934145328 1.8536976938
2247 2 -2.2021159766 3.0723515720 -3.5688022752
2248 2 -0.5411906847 3.3485635421 -1.7613023065
2249 2 -0.2257887544 10.7402261973 0.0461977218
2307 2 -2.5576427001 4.8797236508 1.8536976938
2308 2 -1.8132746635 -0.6286864437 -3.5688023110
2309 2 -1.9431819041 1.1165370470 -1.7613023023
2310 2 -2.2021159766 3.0723515720 0.0461977248
2311 2 -0.5411906847 3.3485635421 1.8536976935
2360 2 -0.9409373213 -3.9716208232 -3.5688023012
2361 2 -1.4423135721 -2.2230640440 -1.7613023168
2362 2 -1.8132746635 -0.6286864437 0.0461976890
2363 2 -1.9431819041 1.1165370470 1.8536976977
2364 2 -0.2257887161 1.5237475849 -3.5688022962
2404 2 -2.5576426918 -4.3367549128 -1.7613023041
2405 2 -0.9409373213 -3.9716208232 0.0461976988
2406 2 -1.4423135721 -2.2230640440 1.8536976832
2407 2 -2.2021159816 -6.1441269874 -3.5688022818
2408 2 -0.5411906799 -5.8679150330 -1.7613023027
2409 2 -0.2257887161 1.5237475849 0.0461977038
2441 2 -2.5576426918 -4.3367549128 1.8536976959
2442 2 -1.8132746964 -9.8451650192 -3.5688023024
2443 2 -1.9431819179 -8.0999415198 -1.7613022938
2444 2 -2.2021159816 -6.1441269874 0.0461977182
2445 2 -0.5411906799 -5.8679150330 1.8536976973
2468 2 -0.9409374018 -13.1880994240 -3.5688022882
2469 2 -1.4423136324 -11.4395426363 -1.7613023034
2470 2 -1.8132746964 -9.8451650192 0.0461976976
2471 2 -1.9431819179 -8.0999415198 1.8536977062
2472 2 -0.2257887331 -7.6927309906 -3.5688022896
2486 2 -2.5576427773 -13.5532335051 -1.7613022937
2487 2 -0.5411907642 -15.0843936572 -1.7613022887
2488 2 -1.4423136324 -11.4395426363 1.8536976966
2489 2 -2.2021160399 -15.3606056065 -3.5688022767
2490 2 -0.2257888106 -16.9092096428 -3.5688022754
2491 2 -0.2257887331 -7.6927309906 0.0461977104
2497 2 -2.5576427773 -13.5532335051 1.8536977063
2498 2 -1.8132747402 17.8042708837 -3.5688022834
2499 2 -1.9431819649 -17.3164201910 -1.7613022778
2500 2 -2.2021160399 -15.3606056065 0.0461977233
2501 2 -0.9409374018 -13.1880994240 0.0461977118
2503 2 -1.8132747402 17.8042708837 0.0461977166
2504 2 -1.9431819649 -17.3164201910 1.8536977222
2005 2 -3.7293495631 11.9432009214 -1.7613022987
2093 2 -3.7293495535 10.1747100967 0.0461977394
2094 2 -3.7293495631 11.9432009214 1.8536977013
2173 2 -3.7293495535 10.1747100967 -3.5688022606
2243 2 -3.7293495600 2.7267223185 -1.7613023111
2305 2 -3.7293495532 0.9582315025 0.0461977300
2306 2 -3.7293495600 2.7267223185 1.8536976889
2359 2 -3.7293495532 0.9582315025 -3.5688022700
2403 2 -3.7293495812 -6.4897562469 -1.7613023016
2439 2 -3.7293495750 -8.2582470672 0.0461977292
2440 2 -3.7293495812 -6.4897562469 1.8536976984
2467 2 -3.7293495750 -8.2582470672 -3.5688022708
2485 2 -3.7293495953 -15.7062349086 -1.7613022925
2495 2 -3.7293495860 -17.4747257377 0.0461977353
2496 2 -3.7293495953 -15.7062349086 1.8536977075
2502 2 -3.7293495860 -17.4747257377 -3.5688022647
