LAMMPS data file via write_data, version 29 Aug 2024, timestep = 408, units = metal

2504 atoms
2 atom types

-55.3988719 55.3988719 xlo xhi
-18.4329573 18.4329573 ylo yhi
-3.615 3.615 zlo zhi
0 0 0 xy xz yz

Masses

1 63.55
2 63.55

Atoms # atomic

1 1 0.6268027561393765 16.807005649108557 -3.591902096898595 0 0 0
2 1 0.2963337883359358 -18.23477101659075 -1.7844018130776078 0 0 0
3 1 0.9573245253994003 13.078396261398144 -3.591901961562196 0 0 0
4 1 0.8206686464697199 14.842995750135909 -1.7844020211147458 0 0 0
5 1 0.6268027558609219 16.807005648780855 0.023097914926271987 0 0 0
6 1 0.29633380167321377 -18.234771021394373 1.830598186874456 0 0 0
7 1 2.551266819832591 15.194324019265967 -3.5919017818466665 0 0 0
8 1 2.2735954919514043 17.042749383734428 -1.7844018498586265 0 0 0
9 1 3.955092982143796 17.39037093230534 -3.5919015938033065 0 0 0
10 1 0.4265869285470316 7.360324244062614 -3.5919019842890982 0 0 0
11 1 0.09107839917245286 9.077327707343184 -1.7844020171208081 0 0 0
12 1 1.7484334304447913 9.567586773087964 -3.591901857438561 0 0 0
13 1 1.28058727911813 11.344694738339456 -1.784401938284722 0 0 0
14 1 0.9573245253520568 13.078396262111411 0.023098037374211334 0 0 0
15 1 0.8206686409028947 14.842995755760622 1.830597978148504 0 0 0
16 1 3.138170522608142 11.680936235189822 -3.591901662064223 0 0 0
17 1 2.8415927533017324 13.406759100441779 -1.7844017126457856 0 0 0
18 1 2.5512668195597072 15.194324019227057 0.0230982165018444 0 0 0
19 1 2.273595484365039 17.04274938518731 1.8305981502206896 0 0 0
20 1 4.640726216318178 13.776558656934963 -3.5919014369294673 0 0 0
21 1 4.307328928814883 15.55785656695365 -1.7844015170022705 0 0 0
22 1 3.9550929821786696 17.390370932282007 0.02309840365710192 0 0 0
23 1 6.062142430167633 15.928212041029166 -3.5919012615842774 0 0 0
24 1 5.705995981216965 17.721663357485806 -1.7844013290201783 0 0 0
25 1 7.495727915682799 18.05254502425448 -3.5919010671789624 0 0 0
26 1 1.1511391510025604 3.7821388191972964 -3.59190199957675 0 0 0
27 1 0.7806673824268344 5.586487020097952 -1.7844019990267768 0 0 0
28 1 0.42658692997761705 7.360324243910835 0.023098011600496147 0 0 0
29 1 0.0910783962228976 9.077327711472332 1.8305979829055652 0 0 0
30 1 2.5451745398588415 5.947904204802381 -3.591901734994542 0 0 0
31 1 2.190876860757541 7.734268575768052 -1.7844017718993863 0 0 0
32 1 1.7484334304164548 9.56758677282825 0.023098140131330904 0 0 0
33 1 1.2805872781413186 11.344694738140767 1.8305980621156392 0 0 0
34 1 3.9100429703809425 8.133230618770394 -3.591901562642402 0 0 0
35 1 3.503761523070196 9.9249834688965 -1.7844016227937862 0 0 0
36 1 3.138170522793594 11.68093623520651 0.02309833799049948 0 0 0
37 1 2.8415927554111136 13.406759098982693 1.830598287360075 0 0 0
38 1 5.305103371741588 10.267546324352338 -3.591901319813317 0 0 0
39 1 4.969115552287228 12.019157341374981 -1.7844013725767978 0 0 0
40 1 4.640726216338052 13.776558656810732 0.02309856402270845 0 0 0
41 1 4.307328930559798 15.557856565326073 1.830598483070378 0 0 0
42 1 6.765715175656368 12.375590709410705 -3.5919011102685547 0 0 0
43 1 6.419518520655991 14.144179383313347 -1.7844011789864977 0 0 0
44 1 6.062142430197824 15.928212041046176 0.023098738758592953 0 0 0
45 1 5.7059959817622925 17.721663357660443 1.830598670963117 0 0 0
46 1 8.194044653714542 14.507678699051855 -3.5919009261838255 0 0 0
47 1 7.838346688788647 16.281455692476758 -1.7844009899051188 0 0 0
48 1 7.495727915671573 18.052545024304163 0.02309893296492718 0 0 0
49 1 9.629431850869082 16.6277672158544 -3.5919007023335157 0 0 0
50 1 9.295714807231235 18.38867086169709 -1.7844007718488963 0 0 0
51 1 0.4538745495565166 -1.8858817375234587 -3.5919020231778225 0 0 0
52 1 0.13311815968268803 -0.19729800201382375 -1.784402056099833 0 0 0
53 1 1.9169292488786525 0.2298623688647332 -3.5919017909657396 0 0 0
54 1 1.5382994792619513 1.9864308803929873 -1.784401911744865 0 0 0
55 1 1.1511391508258697 3.782138819281723 0.023097999727421145 0 0 0
56 1 0.780667380600363 5.586487019007759 1.8305980008699552 0 0 0
57 1 3.296145783640874 2.4013700411610337 -3.5919016159137223 0 0 0
58 1 2.9105179696258645 4.171045799968169 -1.7844016884785383 0 0 0
59 1 2.545174539495875 5.9479042051433915 0.023098265692912005 0 0 0
60 1 2.190876866645013 7.73426857359269 1.8305982276186767 0 0 0
61 1 4.682669652795994 4.560233180187076 -3.5919013973226197 0 0 0
62 1 4.3061528159582565 6.334470269433417 -1.7844014672236013 0 0 0
63 1 3.9100429702073143 8.13323061875553 0.023098439939984027 0 0 0
64 1 3.503761523929512 9.924983468154764 1.8305983771936865 0 0 0
65 1 6.061751396148367 6.722638790494887 -3.591901228931635 0 0 0
66 1 5.673216354428533 8.500347271121576 -1.7844012833904195 0 0 0
67 1 5.305103371712583 10.267546324422977 0.02309868031901794 0 0 0
68 1 4.969115551945272 12.019157341694122 1.8305986272786205 0 0 0
69 1 7.462447404544825 8.857979019587734 -3.591900997371225 0 0 0
70 1 7.108822566015448 10.616025512742567 -1.7844010505020935 0 0 0
71 1 6.765715175599098 12.375590709441376 0.023098889615629743 0 0 0
72 1 6.419518520056833 14.144179383668206 1.8305988210185775 0 0 0
73 1 8.90190352512461 10.973492098981104 -3.5919007832538297 0 0 0
74 1 8.549728314113814 12.737055724167437 -1.7844008513856475 0 0 0
75 1 8.194044653674268 14.507678699061547 0.023099073544362237 0 0 0
76 1 7.838346688664814 16.281455692559202 1.8305990100480565 0 0 0
77 1 10.3318996368655 13.097346040809445 -3.5919005926525696 0 0 0
78 1 9.976985037041317 14.86334892058279 -1.7844006528137397 0 0 0
79 1 9.629431850881062 16.62776721583965 0.023099297569338196 0 0 0
80 1 9.29571480721296 18.388670861391557 1.830599228250294 0 0 0
81 1 11.766832865257854 15.215037971299761 -3.5919003832611693 0 0 0
82 1 11.424655527560489 16.97456748672788 -1.7844004291193674 0 0 0
83 1 13.216960403188352 17.325174265487785 -3.5919001357144174 0 0 0
84 1 1.2237678888154377 -5.375744147148023 -3.591901906677377 0 0 0
85 1 0.8147007299438442 -3.628363293858909 -1.7844019840605796 0 0 0
86 1 0.45387455004565425 -1.8858817365760707 0.023097977220831113 0 0 0
87 1 0.13311816184261005 -0.1972980034537386 1.8305979436436848 0 0 0
88 1 2.6274298063806185 -3.234908788282816 -3.5919016419018033 0 0 0
89 1 2.276250418531262 -1.5142685108917746 -1.7844017178289955 0 0 0
90 1 1.9169292487238252 0.22986236859471632 0.023098211042693873 0 0 0
91 1 1.5382994810395303 1.9864308790122678 1.830598088367015 0 0 0
92 1 4.0641788717031275 -1.1130827053281642 -3.591901403606321 0 0 0
93 1 3.6851831074157673 0.6368264758296611 -1.7844014967888193 0 0 0
94 1 3.296145783725258 2.401370041190468 0.023098384458636902 0 0 0
95 1 2.9105179698284687 4.171045799801597 1.8305983116710298 0 0 0
96 1 5.451808634332522 1.0350606813874776 -3.5919012059624276 0 0 0
97 1 5.064267937212527 2.7957772242987318 -1.784401321600653 0 0 0
98 1 4.682669652974788 4.560233180065378 0.023098602143114568 0 0 0
99 1 4.306152813544543 6.334470271251178 1.830598532860007 0 0 0
100 1 6.835020410612316 3.1811800409265416 -3.5919010367076303 0 0 0
101 1 6.450808290122282 4.947423768678995 -1.7844011198197915 0 0 0
102 1 6.06175139621169 6.722638790431116 0.023098770231317258 0 0 0
103 1 5.673216353380859 8.500347271328746 1.8305987166802733 0 0 0
104 1 8.218447482297414 5.326188734845449 -3.5919008402051045 0 0 0
105 1 7.834790190979227 7.094263022723794 -1.7844009249074981 0 0 0
106 1 7.462447404559747 8.85797901960657 0.023099002361656715 0 0 0
107 1 7.108822566100855 10.61602551268906 1.830598949493317 0 0 0
108 1 9.619308113590208 7.455762599212388 -3.5919006229181396 0 0 0
109 1 9.256186144180319 9.214754481192642 -1.7844007122530172 0 0 0
110 1 8.901903525140654 10.973492098978841 0.02309921677080894 0 0 0
111 1 8.549728314121857 12.737055723927416 1.8305991485941253 0 0 0
112 1 11.045611125981807 9.572417747635104 -3.591900423687218 0 0 0
113 1 10.688472412276553 11.333299967713508 -1.7844004922849552 0 0 0
114 1 10.331899636883023 13.09734604082773 0.02309940737097167 0 0 0
115 1 9.976985036979727 14.863348920643848 1.8305993471904374 0 0 0
116 1 12.473122178574783 11.691178295051959 -3.591900235502096 0 0 0
117 1 12.117454514760126 13.453581878182376 -1.7844003236319297 0 0 0
118 1 11.766832865244936 15.215037971284158 0.02309961673487789 0 0 0
119 1 11.424655527376487 16.974567486712882 1.8305995708258094 0 0 0
120 1 13.90554282360273 13.80681983997778 -3.5919000448288925 0 0 0
121 1 13.558242194190257 15.566298846087815 -1.7844001004647465 0 0 0
122 1 13.216960403181076 17.32517426548699 0.023099864326077406 0 0 0
123 1 15.347139810255683 15.91893928320943 -3.591899867448591 0 0 0
124 1 15.003958311731992 17.679526549322322 -1.7843998787865099 0 0 0
125 1 16.785815368699716 18.036362472262336 -3.59189970044307 0 0 0
126 1 0.7356695529470372 -10.878613578878673 -3.5919020554746397 0 0 0
127 1 0.4891515846859491 -9.129509955124043 -1.7844019306831445 0 0 0
128 1 2.1523397316860056 -8.809000719791813 -3.5919017174652463 0 0 0
129 1 1.7194340101833774 -7.048053565698883 -1.7844017621001649 0 0 0
130 1 1.223767887417985 -5.375744148499479 0.023098099670056372 0 0 0
131 1 0.8147007284258336 -3.6283632959417105 1.830598016779274 0 0 0
132 1 3.456301124612402 -6.685864953361248 -3.5919015065926727 0 0 0
133 1 3.0336015583546185 -4.9378942393749465 -1.7844015757755625 0 0 0
134 1 2.6274298067162363 -3.2349087874344313 0.023098353423173835 0 0 0
135 1 2.276250417619039 -1.5142685078595939 1.830598281812724 0 0 0
136 1 4.819069567943124 -4.5821454693064965 -3.5919012948840665 0 0 0
137 1 4.441451554106415 -2.844450020468086 -1.7844013426783227 0 0 0
138 1 4.064178871506833 -1.113082705688612 0.0230985975245391 0 0 0
139 1 3.6851831058934152 0.6368264757483431 1.8305985032977328 0 0 0
140 1 6.219730344741784 -2.4755981077835347 -3.5919010554275483 0 0 0
141 1 5.839625618775116 -0.7205707082594124 -1.7844011307153718 0 0 0
142 1 5.451808634376896 1.035060681531796 0.02309879293532439 0 0 0
143 1 5.064267937172204 2.795777224688667 1.8305986783070547 0 0 0
144 1 7.604169996904837 -0.34598854253395217 -3.5919008498129448 0 0 0
145 1 7.220109376032681 1.418608874778208 -1.7844009365159261 0 0 0
146 1 6.835020410498693 3.1811800409133006 0.023098963830901185 0 0 0
147 1 6.450808290844421 4.947423768050893 1.8305988801517563 0 0 0
148 1 8.985756637108295 1.789305682381574 -3.5919006800191267 0 0 0
149 1 8.603494830660708 3.557809428521928 -1.7844007544381002 0 0 0
150 1 8.218447482280489 5.326188734917043 0.023099160034634653 0 0 0
151 1 7.834790191435687 7.094263022501533 1.8305990750340457 0 0 0
152 1 10.371340600630091 3.924061818699048 -3.591900474361002 0 0 0
153 1 9.992734281144763 5.692406773977847 -1.7844005551788218 0 0 0
154 1 9.619308113607772 7.455762599214918 0.023099377338391045 0 0 0
155 1 9.25618614420219 9.21475448124562 1.8305992877552162 0 0 0
156 1 11.771485458370151 6.049545748495394 -3.591900279872515 0 0 0
157 1 11.405857306585276 7.812399238880278 -1.7844003610604147 0 0 0
158 1 11.045611125915983 9.572417747641136 0.023099576403541412 0 0 0
159 1 10.688472412178342 11.333299967834716 1.8305995076909087 0 0 0
160 1 13.18992474624676 8.16649206009781 -3.5919000904138123 0 0 0
161 1 12.830876858787533 9.928954475627126 -1.784400166291396 0 0 0
162 1 12.473122178580425 11.691178295075776 0.02309976448172771 0 0 0
163 1 12.117454514777336 13.453581878200808 1.8305996763875676 0 0 0
164 1 14.614031283495692 10.282974834263882 -3.5918999161917586 0 0 0
165 1 14.258168474591344 12.045718763118607 -1.7843999738005007 0 0 0
166 1 13.905542823607476 13.806819840011354 0.02309995510556662 0 0 0
167 1 13.55824219415858 15.566298846023283 1.83059989956075 0 0 0
168 1 16.043330949783382 12.397734794383755 -3.5918997679904328 0 0 0
169 1 15.693356347611598 14.158911097990721 -1.7843998247882271 0 0 0
170 1 15.34713981025159 15.918939283204605 0.023100132639766055 0 0 0
171 1 15.003958311720993 17.67952654932167 1.8306001212209388 0 0 0
172 1 17.478694006901193 14.511169239976272 -3.5918996439719884 0 0 0
173 1 17.1318649482525 16.273214522943302 -1.7843996833430646 0 0 0
174 1 16.78581536870435 18.03636247224615 0.02310029963412613 0 0 0
175 1 18.912414773390893 16.628684023513355 -3.5918995142524768 0 0 0
176 1 18.563645128127973 18.39437192406133 -1.784399532537258 0 0 0
177 1 0.9973420493218015 -14.492635974478597 -3.5919019921015067 0 0 0
178 1 0.89411511825638 -12.75172964036755 -1.7844020358262294 0 0 0
179 1 0.7356695328856944 -10.87861358815075 0.023097904349655723 0 0 0
180 1 0.48915159239947315 -9.129509919975293 1.830598076191771 0 0 0
181 1 2.680567505266012 -12.449815683325602 -3.5919017111886444 0 0 0
182 1 2.453012482228104 -10.661143534818487 -1.7844017673595918 0 0 0
183 1 2.1523397412730247 -8.809000711528304 0.02309827490974923 0 0 0
184 1 1.719434010322587 -7.048053557271512 1.830598236149388 0 0 0
185 1 4.170744931533029 -10.318015698226489 -3.591901482298765 0 0 0
186 1 3.8353170026655405 -8.499201512595064 -1.7844014846291925 0 0 0
187 1 3.4563011216655184 -6.685864958529585 0.023098498415978747 0 0 0
188 1 3.0336015533062692 -4.937894248993604 1.8305984258500252 0 0 0
189 1 5.554031613355264 -8.157452047576353 -3.5919012066404767 0 0 0
190 1 5.191359202425673 -6.3571474091833355 -1.7844012421242017 0 0 0
191 1 4.819069569287379 -4.582145467255462 0.02309870159668607 0 0 0
192 1 4.441451558060528 -2.8444500161967934 1.8305986566867556 0 0 0
193 1 6.941869383082619 -6.021251677953604 -3.591900934936453 0 0 0
194 1 6.585652553764078 -4.241564221566922 -1.7844009842005237 0 0 0
195 1 6.219730344251637 -2.4755981085445757 0.023098946735481612 0 0 0
196 1 5.839625618231203 -0.7205707107133392 1.830598869550435 0 0 0
197 1 8.343765955586413 -3.8951879036784813 -3.591900706764085 0 0 0
198 1 7.980025250524726 -2.117209856547106 -1.784400772484617 0 0 0
199 1 7.604169997082693 -0.34598854225670905 0.023099149600584384 0 0 0
200 1 7.220109376588262 1.4186088756108894 1.8305990634291933 0 0 0
201 1 9.735463985381742 -1.761658743217609 -3.5919005257476617 0 0 0
202 1 9.363881780007617 0.016731754471212668 -1.7844006034159927 0 0 0
203 1 8.985756637094184 1.7893056823264821 0.023099320312474116 0 0 0
204 1 8.603494830126365 3.557809428604461 1.8305992455819857 0 0 0
205 1 11.122636297374484 0.3740170315570701 -3.5919003639783567 0 0 0
206 1 10.749051009077121 2.1512287310576887 -1.7844004214442164 0 0 0
207 1 10.371340600656353 3.9240618186919143 0.023099525301012298 0 0 0
208 1 9.992734281094172 5.692406774170443 1.830599444833252 0 0 0
209 1 12.513048835839257 2.507156258994897 -3.591900173205811 0 0 0
210 1 12.14167216336837 4.28123906193532 -1.7844002302726534 0 0 0
211 1 11.771485458389947 6.049545748458691 0.023099720214076032 0 0 0
212 1 11.40585730652488 7.812399238930855 1.8305996389503247 0 0 0
213 1 13.914563300929757 4.632923255656991 -3.591900010557959 0 0 0
214 1 13.550998014750107 6.401830113367065 -1.7844000495057089 0 0 0
215 1 13.189924746235533 8.166492060135344 0.02309990949706256 0 0 0
216 1 12.830876858747573 9.92895447558736 1.8305998336914455 0 0 0
217 1 15.329541902785436 6.751922095375164 -3.5918998334544385 0 0 0
218 1 14.971355341515874 8.518571455126214 -1.784399878175799 0 0 0
219 1 14.614031283508666 10.28297483431113 0.023100083807495016 0 0 0
220 1 14.258168474668281 12.045718763077058 1.830600026184632 0 0 0
221 1 16.75131795349381 8.8689454928174 -3.591899676584744 0 0 0
222 1 16.396406903990552 10.634502983231219 -1.784399705234314 0 0 0
223 1 16.043330949789294 12.39773479437888 0.02310023199629058 0 0 0
224 1 15.693356347583716 14.15891109798967 1.8306001751959629 0 0 0
225 1 18.178142230758922 10.984522811857264 -3.5918995373209057 0 0 0
226 1 17.82735710308195 12.748662702661491 -1.7843995866322473 0 0 0
227 1 17.478694006861218 14.511169239959482 0.023100356052300635 0 0 0
228 1 17.13186494822699 16.27321452285914 1.8306003166348428 0 0 0
229 1 19.60923414204221 13.099648010773397 -3.5918994270973794 0 0 0
230 1 19.260659756796287 14.864146091859421 -1.7843994724763172 0 0 0
231 1 18.912414773376668 16.628684023495577 0.02310048574478053 0 0 0
232 1 18.56364512825256 18.3943719239909 1.8306004674822047 0 0 0
233 1 21.0393460304887 15.217899152136884 -3.5918993243579136 0 0 0
234 1 20.689534814497705 16.984795441987718 -1.7843993541938956 0 0 0
235 1 22.464114982322386 17.341142214239536 -3.591899214095246 0 0 0
236 1 1.891981681715393 -17.894638918634946 -3.591901775828002 0 0 0
237 1 1.3652744732414845 -16.107334599645977 -1.7844018958441206 0 0 0
238 1 0.9973420502163961 -14.492635974109163 0.023098013967576447 0 0 0
239 1 0.8941151259503357 -12.751729655029816 1.8305979614289583 0 0 0
240 1 3.252969577574028 -15.849878635819453 -3.5919016219996447 0 0 0
241 1 2.9583861799109314 -14.159534751245486 -1.7844016499177897 0 0 0
242 1 2.680567507377752 -12.449815688269771 0.023098291945646037 0 0 0
243 1 2.453012495284348 -10.661143539300415 1.830598241450605 0 0 0
244 1 4.791003405882819 -13.83851157834819 -3.591901399250945 0 0 0
245 1 4.488100289943951 -12.097698839050812 -1.7844014412914737 0 0 0
246 1 4.170744933693278 -10.31801569612624 0.023098520461441927 0 0 0
247 1 3.8353170097195886 -8.499201511066104 1.8305985105836713 0 0 0
248 1 6.254394063738907 -11.738970530505117 -3.5919011734259416 0 0 0
249 1 5.909396670372729 -9.95601428059891 -1.784401185271553 0 0 0
250 1 5.5540316117208235 -8.157452048805432 0.023098796713650685 0 0 0
251 1 5.191359199380543 -6.3571474126441885 1.8305987594117272 0 0 0
252 1 7.655572036562248 -9.597787898757772 -3.591900906214105 0 0 0
253 1 7.29808403798522 -7.808978130482053 -1.7844009136666492 0 0 0
254 1 6.941869383661071 -6.0212516772430575 0.023099063381835122 0 0 0
255 1 6.585652555107792 -4.241564218980571 1.8305990151764564 0 0 0
256 1 9.053213175548436 -7.45999783314817 -3.5919006265210123 0 0 0
257 1 8.699297038219086 -5.676770857667597 -1.7844006644268273 0 0 0
258 1 8.343765955390602 -3.895187903980517 0.023099293779789472 0 0 0
259 1 7.9800252494215655 -2.1172098575844736 1.8305992277122107 0 0 0
260 1 10.457181515307639 -5.3268729544337265 -3.591900421846144 0 0 0
261 1 10.099410839062188 -3.543821636098304 -1.7844004676856593 0 0 0
262 1 9.735463985463412 -1.7616587431037338 0.023099473667509345 0 0 0
263 1 9.363881780336541 0.016731754994097514 1.8305993964932934 0 0 0
264 1 11.855225039362224 -3.190378851265752 -3.591900226223882 0 0 0
265 1 11.491348057539213 -1.4070625431306674 -1.784400301679455 0 0 0
266 1 11.12263629731396 0.37401703147856935 0.02309963622335446 0 0 0
267 1 10.749051008946324 2.151228730759133 1.8305995785848928 0 0 0
268 1 13.249148276175632 -1.053143317065608 -3.59190005943141 0 0 0
269 1 12.882616536112437 0.7285028068495016 -1.7844001096036732 0 0 0
270 1 12.513048835835562 2.507156258998222 0.023099826681571674 0 0 0
271 1 12.141672163532519 4.281239061882427 1.8305997697037626 0 0 0
272 1 14.645218859042146 1.0809143750658947 -3.591899891382641 0 0 0
273 1 14.27982533510881 2.859029633204937 -1.7843999564212258 0 0 0
274 1 13.914563300904945 4.632923255665421 0.02309998949709062 0 0 0
275 1 13.550998014825609 6.401830113329918 1.8305999505015746 0 0 0
276 1 16.049430844415113 3.2086579249926857 -3.591899739759389 0 0 0
277 1 15.688834260748536 4.982125734391982 -1.784399804046853 0 0 0
278 1 15.329541902803001 6.751922095367284 0.023100166568244766 0 0 0
279 1 14.971355341594474 8.518571455141036 1.8306001217994192 0 0 0
280 1 17.463641603374796 5.330532376369398 -3.591899605696229 0 0 0
281 1 17.107132740195127 7.100996815901933 -1.7843996287694954 0 0 0
282 1 16.751317953465858 8.868945492828441 0.02310032338945411 0 0 0
283 1 16.39640690397468 10.63450298323514 1.830600294770376 0 0 0
284 1 18.884307370037206 7.4495956847298395 -3.591899475052288 0 0 0
285 1 18.530656316358062 9.218190538547653 -1.784399517469658 0 0 0
286 1 18.178142230787103 10.984522811846713 0.023100462599167995 0 0 0
287 1 17.827357103005383 12.748662702629371 1.8306004133728415 0 0 0
288 1 20.309529903193692 9.567076731159766 -3.5918993892056084 0 0 0
289 1 19.95877933754106 11.334173866456492 -1.784399407484748 0 0 0
290 1 19.609234142048933 13.099648010807268 0.02310057297543368 0 0 0
291 1 19.2606597568127 14.864146091906253 1.830600527565513 0 0 0
292 1 21.737864464334407 11.684288015144066 -3.591899305101806 0 0 0
293 1 21.388580486991415 13.451298729833429 -1.7843993184597597 0 0 0
294 1 21.03934603046777 15.217899152156196 0.023100675521458298 0 0 0
295 1 20.68953481465816 16.98479544193945 1.830600645799313 0 0 0
296 1 23.165533480367912 13.80379849340375 -3.591899234255825 0 0 0
297 1 22.8153242435028 15.57227880624053 -1.7843992136115308 0 0 0
298 1 22.464114982362176 17.34114221422794 0.023100785919688827 0 0 0
299 1 24.58927176722584 15.927104247636475 -3.5918991489908914 0 0 0
300 1 24.236920492724195 17.69749892796457 -1.784399135673602 0 0 0
301 1 26.008533006773376 18.053766965623037 -3.5918991280810184 0 0 0
302 1 1.8919816814883816 -17.894638918742714 0.023098226741566332 0 0 0
303 1 1.3652744736981717 -16.10733459585018 1.8305981042084831 0 0 0
304 1 3.594087549054379 -17.637507098135835 -1.7844015784838427 0 0 0
305 1 3.252969577539403 -15.849878634973082 0.023098377708748414 0 0 0
306 1 2.9583861749344535 -14.159534749217743 1.8305983481507968 0 0 0
307 1 5.375013798158832 -17.35465788343571 -3.591901359255385 0 0 0
308 1 5.080494270126842 -15.587068268119364 -1.784401375411965 0 0 0
309 1 4.7910034043167045 -13.838511577879524 0.02309859851470772 0 0 0
310 1 4.488100286450376 -12.097698835848405 1.8305985587160276 0 0 0
311 1 6.878840505111306 -15.28166914532389 -3.5919011239620273 0 0 0
312 1 6.5772709398836255 -13.512969152162787 -1.7844011512732847 0 0 0
313 1 6.25439406361258 -11.738970529907142 0.02309882522544043 0 0 0
314 1 5.909396668562522 -9.956014278811631 1.8305988138532987 0 0 0
315 1 8.341891474871147 -13.17103131222567 -3.5919008894424773 0 0 0
316 1 8.006392364202704 -11.385840282845862 -1.7844009006884525 0 0 0
317 1 7.6555720364930195 -9.597787899096557 0.023099093470735774 0 0 0
318 1 7.298084037148392 -7.808978131079819 1.8305990869092632 0 0 0
319 1 9.758100485922284 -11.033346945553461 -3.591900663440033 0 0 0
320 1 9.407376671128588 -9.245615008020339 -1.7844006527662026 0 0 0
321 1 9.053213175716166 -7.459997832962507 0.023099373088644983 0 0 0
322 1 8.699297038884666 -5.676770857159299 1.8305993353447991 0 0 0
323 1 11.163712657878946 -8.894484304780221 -3.5919004218380803 0 0 0
324 1 10.811383636066765 -7.110129286348588 -1.7844004143697259 0 0 0
325 1 10.457181515234083 -5.326872954519146 0.023099578443122878 0 0 0
326 1 10.099410838904518 -3.5438216366425834 1.83059953241858 0 0 0
327 1 12.570118534963015 -6.7580498345884354 -3.5919001804169874 0 0 0
328 1 12.2145817518727 -4.974285375111082 -1.7844001997985712 0 0 0
329 1 11.855225039388486 -3.1903788512062334 0.023099773640723003 0 0 0
330 1 11.491348057725844 -1.4070625429208263 1.8305996982716712 0 0 0
331 1 13.972534453622544 -4.620238545686032 -3.591899961658365 0 0 0
332 1 13.612464036004596 -2.836420940041343 -1.7844000045451744 0 0 0
333 1 13.24914827618808 -1.053143317076863 0.02309994069008188 0 0 0
334 1 12.882616536070586 0.7285028069745785 1.8305998904123808 0 0 0
335 1 15.371816267387487 -2.482434429937596 -3.5918997859459636 0 0 0
336 1 15.00944261029801 -0.7000062013433492 -1.7843998331677438 0 0 0
337 1 14.645218859059469 1.08091437507694 0.02310010846416419 0 0 0
338 1 14.279825335211584 2.859029633241306 1.830600043573485 0 0 0
339 1 16.772637587135165 -0.3476741190161299 -3.591899636975469 0 0 0
340 1 16.41095930416627 1.4317693210891669 -1.784399692307441 0 0 0
341 1 16.049430844412385 3.208657924982635 0.023100260350312166 0 0 0
342 1 15.68883426069334 4.982125734422425 1.8306001959654665 0 0 0
343 1 18.179526380611136 1.781782252383568 -3.5918995276246797 0 0 0
344 1 17.821065711994123 3.5574276581227764 -1.784399566039664 0 0 0
345 1 17.463641603408774 5.330532376343566 0.023100394254464068 0 0 0
346 1 17.107132740285962 7.100996816015101 1.8306003712286454 0 0 0
347 1 19.594024872762574 3.906155588291515 -3.591899395067836 0 0 0
348 1 19.23875711312239 5.678870525138652 -1.7843994407304822 0 0 0
349 1 18.88430737004515 7.449595684753554 0.023100524928447528 0 0 0
350 1 18.530656316342075 9.2181905385413 1.8306004825863094 0 0 0
351 1 21.014209648799522 6.027459346530357 -3.5918992977785913 0 0 0
352 1 20.661396191743975 7.7981431791107205 -1.7843993438858927 0 0 0
353 1 20.30952990316787 9.567076731178158 0.023100610836423636 0 0 0
354 1 19.958779337543305 11.334173866465107 1.8306005925131088 0 0 0
355 1 22.438374620456955 8.147064230353486 -3.5918992803998844 0 0 0
356 1 22.087703280993978 9.916308215794576 -1.7843993069386732 0 0 0
357 1 21.73786446434508 11.684288015172182 0.02310069494633282 0 0 0
358 1 21.388580486886624 13.451298729843923 1.8306006815683267 0 0 0
359 1 23.864894821609596 10.26635378972773 -3.5918992319551526 0 0 0
360 1 23.515214871139392 12.035288022094708 -1.7843992371120367 0 0 0
361 1 23.165533480335384 13.803798493371385 0.023100765775399063 0 0 0
362 1 22.815324243415944 15.572278806231932 1.8306007863597347 0 0 0
363 1 25.290917940228468 12.38727934457524 -3.5918991801569127 0 0 0
364 1 24.94049992410747 14.157097914888585 -1.7843991632001586 0 0 0
365 1 24.58927176726573 15.927104247626236 0.023100850994265537 0 0 0
366 1 24.236920492786766 17.697498927776874 1.830600864303934 0 0 0
367 1 26.713952709141765 14.511059151900024 -3.5918991170095413 0 0 0
368 1 26.36178880436816 16.282230227706247 -1.7843991081482147 0 0 0
369 1 26.008533006790216 18.05376696560347 0.02310087188339659 0 0 0
370 1 28.13334821883575 16.637551790048025 -3.591899076552688 0 0 0
371 1 27.77937994421778 18.409910514114156 -1.7843990916129098 0 0 0
372 1 3.594087549688375 -17.63750709719799 1.8305984217691453 0 0 0
373 1 5.375013798349201 -17.35465788349707 0.023098641530592098 0 0 0
374 1 5.080494270772526 -15.587068269657891 1.8305986248491077 0 0 0
375 1 7.178181909187707 -17.04750538031809 -1.7844011113626996 0 0 0
376 1 6.878840505555196 -15.281669145674286 0.023098876274923696 0 0 0
377 1 6.577270941593426 -13.512969152767733 1.830598849274959 0 0 0
378 1 8.97594722335792 -16.71624533797912 -3.5919008330630153 0 0 0
379 1 8.662069532125926 -14.948758199001423 -1.7844008533825884 0 0 0
380 1 8.341891475133352 -13.17103131230439 0.02309911117538195 0 0 0
381 1 8.006392364891944 -11.385840283301096 1.83059909929878 0 0 0
382 1 10.435597586252953 -14.59942720793939 -3.591900579227854 0 0 0
383 1 10.101214045167339 -12.819669179333957 -1.7844006088750577 0 0 0
384 1 9.758100485921616 -11.03334694567414 0.023099336854320883 0 0 0
385 1 9.407376671296845 -9.245615008204727 1.830599347315926 0 0 0
386 1 11.861532291369443 -12.463525719750699 -3.5919003552482827 0 0 0
387 1 11.514142555299458 -10.679756356601114 -1.7844004060515215 0 0 0
388 1 11.16371265790363 -8.894484304735027 0.02309957813789552 0 0 0
389 1 10.81138363612503 -7.110129286275914 1.8305995855931587 0 0 0
390 1 13.274310104780696 -10.324320125370432 -3.591900170819783 0 0 0
391 1 12.922992535428918 -8.541542381475718 -1.7844001909950997 0 0 0
392 1 12.570118534931282 -6.7580498345689755 0.02309981947205656 0 0 0
393 1 12.214581751688115 -4.974285375182074 1.8305998002026675 0 0 0
394 1 14.684070599206237 -8.186198457842263 -3.59189996205497 0 0 0
395 1 14.32951908729585 -6.403730296811892 -1.7843999516116251 0 0 0
396 1 13.972534453635248 -4.620238545696388 0.023100038345484516 0 0 0
397 1 13.612464036018878 -2.8364209399375397 1.8305999954526937 0 0 0
398 1 16.09019935607138 -6.047805152560144 -3.591899757643102 0 0 0
399 1 15.732069394977728 -4.265338180653837 -1.7843997627130455 0 0 0
400 1 15.37181626738078 -2.4824344299525265 0.02310021397756898 0 0 0
401 1 15.009442610182987 -0.7000062015014095 1.8306001668332172 0 0 0
402 1 17.493765984014416 -3.9100165121545967 -3.5918996036869912 0 0 0
403 1 17.133724091379392 -2.128605297062954 -1.7843996235032529 0 0 0
404 1 16.77263758712151 -0.34767411902321044 0.023100363045604443 0 0 0
405 1 16.41095930428085 1.4317693210622622 1.8306003077140718 0 0 0
406 1 18.898377770489716 -1.7750392179587848 -3.591899478525386 0 0 0
407 1 18.538786641612162 0.004048703400908238 -1.7843994935738117 0 0 0
408 1 18.17952638058965 1.7817822523596938 0.023100472434449924 0 0 0
409 1 17.821065711960614 3.5574276582011386 1.8306004339806068 0 0 0
410 1 20.3075408607952 0.3554829124861243 -3.5918993648491577 0 0 0
411 1 19.95027281926572 2.131602202972978 -1.7843993874276824 0 0 0
412 1 19.594024872728838 3.9061555883051646 0.023100605040932632 0 0 0
413 1 19.23875711309765 5.678870525265175 1.8306005592635979 0 0 0
414 1 21.722601716699458 2.4816332566959964 -3.591899245494707 0 0 0
415 1 21.367917600173527 4.255221867448071 -1.7843992488253035 0 0 0
416 1 21.014209648839284 6.02745934656166 0.023100702206803575 0 0 0
417 1 20.661396191764894 7.798143178920075 1.8306006561055765 0 0 0
418 1 23.142519927037398 4.604789781359461 -3.5918991615702196 0 0 0
419 1 22.789970895406654 6.376517567687902 -1.7843992171288727 0 0 0
420 1 22.438374620461516 8.147064230372045 0.023100719600320202 0 0 0
421 1 22.087703280866023 9.916308215781196 1.8306006930462906 0 0 0
422 1 24.56586854766401 6.726240511564676 -3.591899174064826 0 0 0
423 1 24.215015358689854 8.496713071814927 -1.784399226260933 0 0 0
424 1 23.864894821611458 10.266353789677545 0.023100768076152182 0 0 0
425 1 23.51521487114347 12.035288021953686 1.8306007629429972 0 0 0
426 1 25.991076289036954 8.847299718904178 -3.591899155161743 0 0 0
427 1 25.64095912135022 10.617418097819431 -1.784399162970411 0 0 0
428 1 25.290917940202675 12.387279344518454 0.023100819852661002 0 0 0
429 1 24.940499924053583 14.15709791483916 1.8306008367962983 0 0 0
430 1 27.415912238440043 10.969501859531537 -3.591899121849326 0 0 0
431 1 27.065221693576504 12.740184898657152 -1.784399113443546 0 0 0
432 1 26.71395270911097 14.511059151894639 0.02310088303481925 0 0 0