LAMMPS data file via write_data, version 29 Aug 2024, timestep = 409, units = metal

2504 atoms
2 atom types

-55.3988719 55.3988719 xlo xhi
-18.4329573 18.4329573 ylo yhi
-3.615 3.615 zlo zhi
0 0 0 xy xz yz

Masses

1 63.55
2 63.55

Atoms # atomic

1 1 0.6392934018982928 16.705670216823126 3.614996805320675 0 0 -1
2 1 0.2837667274600477 -18.35287225847018 -1.8075026935640361 0 1 0
3 1 1.0281344914639021 13.00463220336924 3.614997151525436 0 0 -1
4 1 0.8982273221724597 14.74985569594983 -1.8075029557647688 0 0 0
5 1 0.6392934018982928 16.70567021682312 -3.194679323932914e-06 0 0 0
6 1 0.2837667274600477 -18.35287225847018 1.8074973064359656 0 1 0
7 1 2.6156204941051655 15.157066017161196 3.6149973044189183 0 0 -1
8 1 2.300218622999722 16.981882094185007 -1.8075027509811445 0 0 0
9 1 3.9964993600271725 17.35959474794767 3.614997476781954 0 0 -1
10 1 0.6392934012260554 7.489191564731048 3.614996805398344 0 0 -1
11 1 0.28376672400725056 9.296563693177873 -1.8075026935803062 0 0 0
12 1 1.9004719531689744 9.661697710016927 3.614997359214939 0 0 -1
13 1 1.39909559003641 11.41025455829741 -1.8075027066476794 0 0 0
14 1 1.0281344914639021 13.00463220336924 -2.848474563288406e-06 0 0 0
15 1 0.8982273221724455 14.74985569594983 1.80749704423523 0 0 0
16 1 3.2759967737112135 11.719803411386895 3.614997536475593 0 0 -1
17 1 2.9611000155361467 13.4133497837038 -1.807502512497563 0 0 0
18 1 2.6156204941051655 15.157066017161196 -2.695581087167054e-06 0 0 0
19 1 2.3002186229997363 16.981882094185007 1.8074972490188572 0 0 0
20 1 4.746932687441195 13.796946663836959 3.6149976629301963 0 0 -1
21 1 4.379431577384693 15.560242238837777 -1.8075024268615287 0 0 0
22 1 3.9964993600271725 17.35959474794767 -2.523218047491005e-06 0 0 0
23 1 6.133997683489042 15.941907053612372 3.614997732898471 0 0 -1
24 1 5.7577719056391885 17.718039147356276 -1.8075022868940203 0 0 0
25 1 7.541809968051261 18.0679242122938 3.6149979085731454 0 0 -1
26 1 1.0281344922557878 3.7881535509758564 3.614997151527466 0 0 -1
27 1 0.8982273179058993 5.533377049558002 -1.8075029557839524 0 0 0
28 1 0.6392934012260554 7.489191564731048 -3.1946016543238365e-06 0 0 0
29 1 0.28376672400725056 9.296563693177873 1.8074973064196935 0 0 0
30 1 2.6156204946386765 5.940587368875505 3.61499730442494 0 0 -1
31 1 2.3002186247919667 7.76540344296615 -1.8075027510109727 0 0 0
32 1 1.9004719531689673 9.661697710016927 -2.6407850549503565e-06 0 0 0
33 1 1.39909559003641 11.410254558297407 1.807497293352323 0 0 0
34 1 3.9964993593074496 8.143116097262713 3.6149974767867703 0 0 -1
35 1 3.622978433093188 9.952141088778983 -1.8075024632151253 0 0 0
36 1 3.2759967737112135 11.719803411386895 -2.463524401053463e-06 0 0 0
37 1 2.9611000155361467 13.413349783703797 1.8074974875024377 0 0 0
38 1 5.406662274263944 10.272368283126998 3.614997721468329 0 0 -1
39 1 5.0850304092803 12.03440157038381 -1.807502271424079 0 0 0
40 1 4.746932687441181 13.796946663836959 -2.3370698054703266e-06 0 0 0
41 1 4.379431577384693 15.560242238837777 1.8074975731384693 0 0 0
42 1 6.858516379413416 12.383231680865986 3.6149979072625698 0 0 -1
43 1 6.5065652723799445 14.160895590070037 -1.807502165292623 0 0 0
44 1 6.133997683489056 15.941907053612372 -2.267101527257398e-06 0 0 0
45 1 5.757771905639203 17.718039147356276 1.8074977131059773 0 0 0
46 1 8.264696886317246 14.52093188593317 3.614997978348655 0 0 -1
47 1 7.900408911278113 16.29877373067715 -1.8075020848496808 0 0 0
48 1 7.541809968051247 18.0679242122938 -2.0914268523986035e-06 0 0 0
49 1 9.675329628372168 16.648988023533118 3.614998150967461 0 0 -1
50 1 9.324563658603353 18.41745365148118 -1.8075018929629967 0 0 0
51 1 0.6392934025400479 -1.7272870822153195 3.614996805429712 0 0 -1
52 1 0.2837667290123278 0.0800850404325324 -1.8075026935869205 0 0 0
53 1 1.9004719499958682 0.4452190565841434 3.614997359216282 0 0 -1
54 1 1.3990955898107202 2.1937759102685988 -1.8075027066506362 0 0 0
55 1 1.0281344922557807 3.7881535509758635 -2.8484725332822425e-06 0 0 0
56 1 0.8982273179058993 5.533377049558002 1.8074970442160474 0 0 0
57 1 3.2759967746395873 2.5033247648086423 3.614997536473559 0 0 -1
58 1 2.961100018175763 4.1968711303716795 -1.8075025125007478 0 0 0
59 1 2.6156204946386765 5.9405873688755015 -2.695575058554445e-06 0 0 0
60 1 2.3002186247919667 7.76540344296615 1.8074972489890284 0 0 0
61 1 4.746932686548028 4.580468012276679 3.61499766292831 0 0 -1
62 1 4.3794315763962 6.34376358981935 -1.8075024268660937 0 0 0
63 1 3.9964993593074496 8.143116097262716 -2.5232132309421786e-06 0 0 0
64 1 3.622978433093188 9.952141088778983 1.8074975367848756 0 0 0
65 1 6.1339976839800485 6.725428404209353 3.6149977328963785 0 0 -1
66 1 5.75777190603835 8.501560497066077 -1.8075022868971602 0 0 0
67 1 5.406662274263944 10.272368283126998 -2.2785316720130845e-06 0 0 0
68 1 5.085030409280286 12.0344015703838 1.807497728575923 0 0 0
69 1 7.541809967785902 8.851445562018302 3.61499790857186 0 0 -1
70 1 7.1977818741000235 10.614150941326354 -1.8075020850610535 0 0 0
71 1 6.858516379413402 12.383231680865986 -2.0927374284712698e-06 0 0 0
72 1 6.5065652723799445 14.160895590070044 1.807497834707373 0 0 0
73 1 8.976267994940798 10.968796206468824 3.614998096035279 0 0 -1
74 1 8.624279582880703 12.741777212431941 -1.8075019299673296 0 0 0
75 1 8.264696886317246 14.520931885933162 -2.0216513465087796e-06 0 0 0
76 1 7.900408911278113 16.29877373067715 1.8074979151503194 0 0 0
77 1 10.39055479869009 13.100531782932794 3.614998232512517 0 0 -1
78 1 10.031642113789147 14.876017676760402 -1.8075017858339195 0 0 0
79 1 9.675329628372182 16.648988023533118 -1.8490325340830838e-06 0 0 0
80 1 9.324563658603353 18.41745365148117 1.8074981070370029 0 0 0
81 1 11.804465369332092 15.22906007127622 3.6149984425075363 0 0 -1
82 1 11.451575157846662 17.00011897541751 -1.8075015631312659 0 0 0
83 1 13.225767591637194 17.353589365875468 3.6149987025598374 0 0 -1
84 1 1.028134491299781 -5.428325096263597 3.6149971515298165 0 0 -1
85 1 0.8982273229652833 -3.6831016047815215 -1.807502955792682 0 0 0
86 1 0.6392934025400479 -1.727287082215316 -3.1945702875579853e-06 0 0 0
87 1 0.283766729012342 0.0800850404325324 1.8074973064130786 0 0 0
88 1 2.615620493961181 -3.2758912832301057 3.614997304428712 0 0 -1
89 1 2.30021862205011 -1.4510752052750142 -1.8075027510213524 0 0 0
90 1 1.9004719499958682 0.44521905658413985 -2.6407837136532834e-06 0 0 0
91 1 1.3990955898107202 2.1937759102685988 1.8074972933493645 0 0 0
92 1 3.9964993603690147 -1.0733625516779917 3.614997476789603 0 0 -1
93 1 3.622978434499956 0.7356624379291006 -1.807502463214204 0 0 0
94 1 3.2759967746395873 2.503324764808635 -2.4635264426986495e-06 0 0 0
95 1 2.961100018175763 4.1968711303716795 1.8074974874992527 0 0 0
96 1 5.406662273856199 1.0558896320305422 3.6149977214682543 0 0 -1
97 1 5.085030407671709 2.817922921465879 -1.8075022714230333 0 0 0
98 1 4.746932686548028 4.580468012276679 -2.3370716974135954e-06 0 0 0
99 1 4.3794315763962 6.343763589819353 1.8074975731339076 0 0 0
100 1 6.858516379903008 3.166753031430506 3.6149979072619116 0 0 -1
101 1 6.506565273122618 4.944416939706816 -1.8075021652934264 0 0 0
102 1 6.1339976839800485 6.7254284042093495 -2.2671036254923173e-06 0 0 0
103 1 5.75777190603835 8.501560497066073 1.807497713102839 0 0 0
104 1 8.26469688595354 5.304453235639617 3.6149979783471102 0 0 -1
105 1 7.90040891090068 7.082295080782266 -1.807502084851324 0 0 0
106 1 7.541809967785895 8.851445562018302 -2.091428141520746e-06 0 0 0
107 1 7.1977818741000235 10.614150941326354 1.8074979149389525 0 0 0
108 1 9.675329628493543 7.432509373688706 3.6149981509658353 0 0 -1
109 1 9.32456365873972 9.20097500142968 -1.8075018929634363 0 0 0
110 1 8.976267994940798 10.968796206468824 -1.903964727618668e-06 0 0 0
111 1 8.624279582880703 12.741777212431938 1.8074980700326684 0 0 0
112 1 11.10046867822787 9.554140266808847 3.6149983385802726 0 0 -1
113 1 10.747496762423054 11.32606593035036 -1.8075016992642683 0 0 0
114 1 10.39055479869009 13.100531782932794 -1.7674874847084521e-06 0 0 0
115 1 10.031642113789147 14.876017676760409 1.8074982141660831 0 0 0
116 1 12.517190371184242 11.682601722650983 3.6149985455440663 0 0 -1
117 1 12.160359493792342 13.456339404740657 -1.8075015224456061 0 0 0
118 1 11.804465369332092 15.22906007127622 -1.5574924632932864e-06 0 0 0
119 1 11.451575157846662 17.00011897541751 1.8074984368687368 0 0 0
120 1 13.932698373837539 13.810436572701324 3.6149987709822176 0 0 -1
121 1 13.578634453990716 15.582200282628815 -1.807501253500599 0 0 0
122 1 13.225767591637194 17.353589365875468 -1.2974401628562671e-06 0 0 0
123 1 15.35201803702283 15.936150925155854 3.6149990992009293 0 0 -1
124 1 14.99820869073676 17.708275869713443 -1.8075009882319966 0 0 0
125 1 16.770044904773627 18.06316189382 3.6149994333421187 0 0 -1
126 1 0.6392934017678016 -10.94376573358413 3.6149968054357218 0 0 -1
127 1 0.28376672688651894 -9.136393608150481 -1.807502693589907 0 0 0
128 1 1.900471951655696 -8.771259591276108 3.614997359216298 0 0 -1
129 1 1.3990955899021174 -7.022702741958678 -1.807502706653059 0 0 0
130 1 1.028134491299781 -5.428325096263599 -2.8484701846076544e-06 0 0 0
131 1 0.8982273229652691 -3.683101604781525 1.807497044207318 0 0 0
132 1 3.275996774205062 -6.713153888145337 3.6149975364739695 0 0 -1
133 1 2.961100015303039 -5.019607516081571 -1.8075025125016524 0 0 0
134 1 2.615620493961181 -3.2758912832301057 -2.695571287912313e-06 0 0 0
135 1 2.30021862205011 -1.4510752052750142 1.8074972489786456 0 0 0
136 1 4.746932687363682 -4.636010636186011 3.614997662930066 0 0 -1
137 1 4.379431577754119 -2.8727150614717623 -1.8075024268646243 0 0 0
138 1 3.9964993603690147 -1.0733625516779917 -2.5232103986461143e-06 0 0 0
139 1 3.622978434499956 0.7356624379291006 1.807497536785793 0 0 0
140 1 6.133997683381445 -2.4910502465713975 3.614997732898764 0 0 -1
141 1 5.757771905329008 -0.7149181524217774 -1.8075022868930177 0 0 0
142 1 5.406662273856199 1.0558896320305422 -2.2785317458606792e-06 0 0 0
143 1 5.085030407671709 2.817922921465879 1.8074977285769633 0 0 0
144 1 7.54180996807797 -0.3650330874894152 3.614997908574066 0 0 -1
145 1 7.197781874786315 1.3976722908405392 -1.8075020850565542 0 0 0
146 1 6.858516379903008 3.166753031430506 -2.092738087480783e-06 0 0 0
147 1 6.506565273122618 4.944416939706816 1.8074978347065702 0 0 0
148 1 8.97626799465938 1.7523175561940398 3.614998096036716 0 0 -1
149 1 8.624279582445084 3.5252985625955446 -1.807501929965516 0 0 0
150 1 8.26469688595354 5.304453235639617 -2.0216528892813557e-06 0 0 0
151 1 7.90040891090068 7.0822950807822735 1.8074979151486772 0 0 0
152 1 10.390554798858261 3.8840531330687256 3.6149982325123253 0 0 -1
153 1 10.031642113971984 5.659539026712292 -1.8075017858343352 0 0 0
154 1 9.675329628493543 7.432509373688713 -1.8490341635463148e-06 0 0 0
155 1 9.32456365873972 9.20097500142968 1.8074981070365614 0 0 0
156 1 11.804465369182282 6.012581421212321 3.6149984425063724 0 0 -1
157 1 11.451575157677212 7.783640325453472 -1.8075015631317939 0 0 0
158 1 11.100468678227884 9.554140266808847 -1.661419729306335e-06 0 0 0
159 1 10.747496762423054 11.32606593035035 1.807498300735728 0 0 0
160 1 13.22576759164626 8.13711071592994 3.6149987025578803 0 0 -1
161 1 12.87247487224117 9.909249367795343 -1.8075013620370528 0 0 0
162 1 12.517190371184228 11.682601722650983 -1.4544559301110649e-06 0 0 0
163 1 12.160359493792328 13.456339404740653 1.807498477554394 0 0 0
164 1 14.643561829056551 10.26458037567193 3.6149989508115308 0 0 -1
165 1 14.288058055264244 12.037734831042307 -1.807501151415364 0 0 0
166 1 13.932698373837539 13.810436572701324 -1.229017781695374e-06 0 0 0
167 1 13.578634453990716 15.582200282628815 1.8074987464994001 0 0 0
168 1 16.06017064268535 12.392069731912446 3.6149992181316963 0 0 -1
169 1 15.705783722271718 14.164266898774851 -1.8075008694158228 0 0 0
170 1 15.35201803702283 15.936150925155854 -9.007990719145376e-07 0 0 0
171 1 14.99820869073676 17.708275869713443 1.8074990117680065 0 0 0
172 1 17.4786229689862 14.518414189547098 3.6149995740616876 0 0 -1
173 1 17.124519412912875 16.29064487319747 -1.8075004817543467 0 0 0
174 1 16.770044904773627 18.063161893820006 -5.66657888986799e-07 0 0 0
175 1 18.896649905631037 16.645279312457486 3.6149999646220072 0 0 -1
176 1 18.54198802187507 18.417842847200728 -1.8075001088992222 0 0 0
177 1 1.0281344915880553 -14.644803747024167 3.614997151533073 0 0 -1
178 1 0.8982273216625956 -12.89958025359732 -1.8075029557930724 0 0 0
179 1 0.6392934017678158 -10.943765733584128 -3.194564284631496e-06 0 0 0
180 1 0.28376672688651894 -9.136393608150483 1.807497306410095 0 0 0
181 1 2.6156204941425614 -12.492369932530886 3.614997304430342 0 0 -1
182 1 2.300218623320852 -10.667553856130723 -1.8075027510248522 0 0 0
183 1 1.900471951655696 -8.771259591276104 -2.640783703218297e-06 0 0 0
184 1 1.3990955899021174 -7.022702741958678 1.8074972933469386 0 0 0
185 1 3.9964993599468315 -10.289841202295001 3.6149974767885413 0 0 -1
186 1 3.6229784337000837 -8.480816211319297 -1.8075024632166388 0 0 0
187 1 3.275996774205062 -6.713153888145332 -2.463526034931496e-06 0 0 0
188 1 2.961100015303039 -5.019607516081564 1.8074974874983487 0 0 0
189 1 5.406662273998535 -8.160589017101389 3.6149977214674074 0 0 -1
190 1 5.085030409150512 -6.398555729765757 -1.8075022714227515 0 0 0
191 1 4.746932687363682 -4.636010636186011 -2.337069933900926e-06 0 0 0
192 1 4.379431577754119 -2.8727150614717623 1.8074975731353764 0 0 0
193 1 6.858516379540397 -6.049725619165567 3.6149979072625977 0 0 -1
194 1 6.506565272323975 -4.27206170984644 -1.8075021652897991 0 0 0
195 1 6.133997683381445 -2.4910502465713975 -2.267101232268365e-06 0 0 0
196 1 5.757771905329008 -0.7149181524217738 1.8074977131069816 0 0 0
197 1 8.26469688630953 -3.9120254140586592 3.614997978349519 0 0 -1
198 1 7.900408911366888 -2.1341835694600455 -1.807502084844904 0 0 0
199 1 7.54180996807797 -0.3650330874894081 -2.0914259353238543e-06 0 0 0
200 1 7.197781874786315 1.3976722908405392 1.8074979149434418 0 0 0
201 1 9.675329628319574 -1.7839692765616242 3.6149981509695586 0 0 -1
202 1 9.324563658403974 -0.015503648423461414 -1.8075018929574327 0 0 0
203 1 8.97626799465938 1.7523175561940398 -1.9039632895972993e-06 0 0 0
204 1 8.624279582445098 3.5252985625955446 1.807498070034488 0 0 0
205 1 11.100468678373488 0.3376616169181048 3.614998338583175 0 0 -1
206 1 10.74749676263157 2.109587280273505 -1.807501699261097 0 0 0
207 1 10.390554798858261 3.884053133068729 -1.7674876737422409e-06 0 0 0
208 1 10.031642113971984 5.659539026712292 1.8074982141656608 0 0 0
209 1 12.517190371050901 2.4661230725854892 3.6149985455449363 0 0 -1
210 1 12.16035949362795 4.239860754771097 -1.8075015224452735 0 0 0
211 1 11.804465369182282 6.0125814212123245 -1.5574936255902117e-06 0 0 0
212 1 11.451575157677198 7.783640325453465 1.807498436868206 0 0 0
213 1 13.932698373859537 4.59395792275086 3.614998770980591 0 0 -1
214 1 13.57863445401658 6.365721632634074 -1.8075012535016795 0 0 0
215 1 13.22576759164626 8.13711071592994 -1.2974421194161812e-06 0 0 0
216 1 12.87247487224117 9.909249367795343 1.8074986379629494 0 0 0
217 1 15.352018036933202 6.719672275150025 3.6149990991982657 0 0 -1
218 1 14.99820869064483 8.491797219733119 -1.807500988232825 0 0 0
219 1 14.643561829056551 10.26458037567193 -1.0491884696539611e-06 0 0 0
220 1 14.28805805526423 12.037734831042304 1.807498848584635 0 0 0
221 1 16.770044904747124 8.84668324384425 3.6149994333397415 0 0 -1
222 1 16.415116324542055 10.619434992194112 -1.8075006646414793 0 0 0
223 1 16.06017064268535 12.392069731912446 -7.818683036658891e-07 0 0 0
224 1 15.705783722271718 14.164266898774851 1.8074991305841686 0 0 0
225 1 18.18726217353658 10.973899980576615 3.6149997809359666 0 0 -1
226 1 17.832775344410763 12.746243191188412 -1.8075003316816798 0 0 0
227 1 17.478622968986187 14.518414189547105 -4.25938311263141e-07 0 0 0
228 1 17.124519412912875 16.29064487319747 1.8074995182456504 0 0 0
229 1 19.60534452882486 13.100539085599124 -3.614999868414798 0 0 0
230 1 19.25107188392893 14.872843848648994 -1.80749994172882 0 0 0
231 1 18.896649905631037 16.645279312457486 -3.537799341313264e-08 0 0 0
232 1 18.541988021875085 18.417842847200728 1.8074998911007802 0 0 0
233 1 21.023323010674375 15.227371650082699 -3.614999509207663 0 0 0
234 1 20.668782313244407 16.999848063587248 -1.8074996019721403 0 0 0
235 1 22.441023549244846 17.354329392576414 -3.614999217126729 0 0 0
236 1 1.900471951271264 -17.987738241776064 3.6149973592079756 0 0 -1
237 1 1.3990955899075672 -16.239181391316187 -1.8075027066482547 0 0 0
238 1 1.0281344915880553 -14.644803747024168 -2.8484669264838837e-06 0 0 0
239 1 0.8982273216626027 -12.899580253597328 1.8074970442069216 0 0 0
240 1 3.2759967742985125 -15.929632537345894 3.6149975364758715 0 0 -1
241 1 2.9611000160471903 -14.236086167040899 -1.807502512502357 0 0 0
242 1 2.6156204941425614 -12.492369932530881 -2.6955696560410084e-06 0 0 0
243 1 2.300218623320852 -10.667553856130723 1.807497248975149 0 0 0
244 1 4.746932687214425 -13.85248928668724 3.6149976629291314 0 0 -1
245 1 4.3794315772328005 -12.089193710913628 -1.8075024268677227 0 0 0
246 1 3.9964993599468315 -10.289841202295001 -2.5232114585999057e-06 0 0 0
247 1 3.6229784337000837 -8.4808162113193 1.807497536783365 0 0 0
248 1 6.133997683601223 -11.707528896217017 3.6149977328955387 0 0 -1
249 1 5.757771905730998 -9.93139680283614 -1.807502286896519 0 0 0
250 1 5.406662273998521 -8.160589017101385 -2.278532593502636e-06 0 0 0
251 1 5.085030409150498 -6.398555729765766 1.8074977285772484 0 0 0
252 1 7.541809968026854 -9.581511737876895 3.614997908570878 0 0 -1
253 1 7.197781874265658 -7.818806358717023 -1.8075020850576944 0 0 0
254 1 6.858516379540397 -6.049725619165569 -2.0927374067986062e-06 0 0 0
255 1 6.506565272323975 -4.272061709846431 1.8074978347102 0 0 0
256 1 8.976267994864585 -7.464161093601895 3.614998096036167 0 0 -1
257 1 8.62427958286436 -5.691180087651809 -1.8075019299628705 0 0 0
258 1 8.26469688630953 -3.9120254140586592 -2.0216504832143435e-06 0 0 0
259 1 7.900408911366888 -2.1341835694600384 1.8074979151550996 0 0 0
260 1 10.390554798721084 -5.332425517106053 3.614998232514812 0 0 -1
261 1 10.031642113744894 -3.5569396232195416 -1.8075017858280744 0 0 0
262 1 9.675329628319574 -1.7839692765616277 -1.8490304414670036e-06 0 0 0
263 1 9.324563658403974 -0.015503648423472072 1.807498107042564 0 0 0
264 1 11.804465369300559 -3.203897228716892 3.6149984425099966 0 0 -1
265 1 11.451575157852204 -1.43283832462852 -1.80750156312532 0 0 0
266 1 11.100468678373488 0.3376616169181048 -1.6614168275774777e-06 0 0 0
267 1 10.74749676263157 2.1095872802735087 1.807498300738905 0 0 0
268 1 13.225767591559645 -1.0793679341427769 3.614998702560701 0 0 -1
269 1 12.872474872108143 0.692770717815165 -1.8075013620333125 0 0 0
270 1 12.517190371050901 2.466123072585482 -1.4544550652112466e-06 0 0 0
271 1 12.16035949362795 4.239860754771097 1.8074984775547296 0 0 0
272 1 14.64356182908979 1.0481017257008176 3.61499895081196 0 0 -1
273 1 14.28805805530176 2.8212561810371994 -1.8075011514153871 0 0 0
274 1 13.932698373859523 4.593957922750871 -1.2290194115599506e-06 0 0 0
275 1 13.57863445401658 6.365721632634074 1.807498746498315 0 0 0
276 1 16.060170642602642 3.1755910819025956 3.614999218129666 0 0 -1
277 1 15.705783722177713 4.947788248792829 -1.8075008694177344 0 0 0
278 1 15.352018036933217 6.719672275150021 -9.008017344414032e-07 0 0 0
279 1 14.99820869064483 8.491797219733108 1.8074990117671772 0 0 0
280 1 17.478622968956458 5.301935539573211 3.6149995740580603 0 0 -1
281 1 17.124519412886585 7.074166223208241 -1.8075004817568543 0 0 0
282 1 16.770044904747138 8.846683243844257 -5.666602625448159e-07 0 0 0
283 1 16.415116324542055 10.619434992194105 1.807499335358523 0 0 0
284 1 18.896649905568125 7.428800662461953 3.61499996461905 0 0 -1
285 1 18.54198802181493 9.201364197210221 -1.8075001089011593 0 0 0
286 1 18.18726217353658 10.973899980576611 -2.190640298010971e-07 0 0 0
287 1 17.832775344410763 12.746243191188409 1.8074996683183246 0 0 0
288 1 20.31418587120156 9.55584951667684 -3.6149996635592747 0 0 0
289 1 19.95968059734149 11.328242577871816 -1.8074997484707758 0 0 0
290 1 19.60534452882486 13.100539085599124 1.3158519374778523e-07 0 0 0
291 1 19.25107188392893 14.872843848649001 1.8075000582711824 0 0 0
292 1 21.732113660026258 11.682618119613473 -3.614999322908395 0 0 0
293 1 21.377745875470353 13.454966675943862 -1.8074994069713113 0 0 0
294 1 21.02332301067439 15.227371650082699 4.907923409280813e-07 0 0 0
295 1 20.668782313244392 16.99984806358724 1.807500398027863 0 0 0
296 1 23.150043413689417 13.809449512346443 -3.6149990269505454 0 0 0
297 1 22.79555209694739 15.581884048096907 -1.807499137014097 0 0 0
298 1 22.441023549244846 17.354329392576414 7.828732670867034e-07 0 0 0
299 1 24.56782345817281 15.936357895674636 -3.614998742249153 0 0 0
300 1 24.21333847065003 17.708769914010713 -1.807498831483731 0 0 0
301 1 25.985672681159215 18.063208031813215 -3.614998376060413 0 0 0
302 1 1.900471951271264 -17.987738241776064 -2.6407920267251808e-06 0 0 0
303 1 1.3990955899075672 -16.239181391316183 1.8074972933517404 0 0 0
304 1 3.6229784338800712 -17.697294861528675 -1.8075024632107182 0 0 0
305 1 3.2759967742985125 -15.929632537345894 -2.4635241277370938e-06 0 0 0
306 1 2.9611000160471903 -14.236086167040904 1.8074974874976415 0 0 0
307 1 5.406662273997135 -17.377067667339773 3.6149977214686118 0 0 -1
308 1 5.0850304088104465 -15.615034379372377 -1.8075022714244762 0 0 0
309 1 4.746932687214425 -13.85248928668724 -2.337070865825464e-06 0 0 0
310 1 4.3794315772328005 -12.089193710913625 1.807497573132274 0 0 0
311 1 6.858516379621463 -15.266204268940337 3.6149979072612584 0 0 -1
312 1 6.5065652726089525 -13.488540360070097 -1.8075021652947703 0 0 0
313 1 6.133997683601223 -11.707528896217022 -2.267104459087177e-06 0 0 0
314 1 5.757771905731005 -9.931396802836135 1.807497713103481 0 0 0
315 1 8.26469688625805 -13.128504064210308 3.6149979783453143 0 0 -1
316 1 7.900408911205801 -11.350662219289763 -1.807502084850469 0 0 0
317 1 7.541809968026854 -9.581511737876891 -2.0914291191986846e-06 0 0 0
318 1 7.197781874265658 -7.818806358717023 1.8074979149423036 0 0 0
319 1 9.67532962840545 -11.000447926423002 3.6149981509647255 0 0 -1
320 1 9.32456365865501 -9.231982298613172 -1.8075018929612825 0 0 0
321 1 8.976267994864585 -7.464161093601897 -1.9039638318152365e-06 0 0 0
322 1 8.62427958286436 -5.691180087651809 1.8074980700371264 0 0 0
323 1 11.100468678340789 -8.878817033200837 3.614998338581227 0 0 -1
324 1 10.747496762489362 -7.106891369664103 -1.807501699261521 0 0 0
325 1 10.390554798721084 -5.332425517106053 -1.7674851870047582e-06 0 0 0
326 1 10.031642113744894 -3.5569396232195416 1.8074982141719242 0 0 0
327 1 12.517190371163423 -6.750355577379322 3.6149985455464124 0 0 -1
328 1 12.160359493776724 -4.976617895302885 -1.8075015224417534 0 0 0
329 1 11.804465369300544 -3.203897228716892 -1.5574900066567255e-06 0 0 0
330 1 11.451575157852204 -1.43283832462852 1.8074984368746774 0 0 0
331 1 13.932698373825318 -4.622520727315015 3.6149987709833247 0 0 -1
332 1 13.578634453936871 -2.8507570173640744 -1.8075012534967712 0 0 0
333 1 13.22576759155963 -1.0793679341427769 -1.2974392983577942e-06 0 0 0
334 1 12.872474872108143 0.692770717815165 1.8074986379666858 0 0 0
335 1 15.352018036977498 -2.4968063748375844 3.6149990992002805 0 0 -1
336 1 14.998208690691968 -0.7246814302888183 -1.8075009882295225 0 0 0
337 1 14.64356182908979 1.0481017257008212 -1.0491880406154898e-06 0 0 0
338 1 14.28805805530176 2.821256181037196 1.8074988485846182 0 0 0
339 1 16.770044904693293 -0.36979540616974305 3.6149994333391784 0 0 -1
340 1 16.415116324466425 1.4029563422042806 -1.8075006646414387 0 0 0
341 1 16.060170642602642 3.1755910819025956 -7.818703312639786e-07 0 0 0
342 1 15.705783722177713 4.947788248792822 1.8074991305822645 0 0 0
343 1 18.187262173516345 1.7574213306024795 3.6149997809328163 0 0 -1
344 1 17.832775344387144 3.5297645412022334 -1.8075003316837122 0 0 0
345 1 17.478622968956458 5.301935539573208 -4.259419406316134e-07 0 0 0
346 1 17.124519412886585 7.074166223208234 1.807499518243146 0 0 0
347 1 19.605344528763183 3.8840604356145043 -3.614999868419229 0 0 0
348 1 19.251071883863617 5.656365198665707 -1.8074999417313378 0 0 0
349 1 18.89664990556814 7.428800662461953 -3.538095012634024e-08 0 0 0
350 1 18.54198802181493 9.201364197210221 1.8074998910988385 0 0 0
351 1 21.023323010637128 6.010893000106371 -3.614999509210798 0 0 0
352 1 20.668782313207217 7.783369413600926 -1.8074996019741159 0 0 0
353 1 20.31418587120156 9.55584951667684 3.364407283967808e-07 0 0 0
354 1 19.95968059734149 11.328242577871801 1.8075002515292165 0 0 0
355 1 22.44102354919771 8.137850742596484 -3.6149992171271306 0 0 0
356 1 22.08652761684344 9.910260316449023 -1.807499264243151 0 0 0
357 1 21.732113660026272 11.68261811961348 6.77091603688007e-07 0 0 0
358 1 21.377745875470353 13.454966675943862 1.8075005930286865 0 0 0
359 1 23.858893249866142 10.26467677936348 -3.614998868399488 0 0 0
360 1 23.50447762615046 12.037051898981268 -1.8074989184496177 0 0 0
361 1 23.150043413689417 13.809449512346458 9.730494579318629e-07 0 0 0
362 1 22.79555209694739 15.581884048096914 1.8075008629858993 0 0 0
363 1 25.276790304068427 12.391515312053304 -3.614998513833108 0 0 0
364 1 24.922318546821543 14.163931842979007 -1.8074986154367692 0 0 0
365 1 24.56782345817281 15.936357895674643 1.2577508493372137e-06 0 0 0
366 1 24.213338470650044 17.708769914010713 1.8075011685162639 0 0 0
367 1 26.69460712002983 14.51839869131167 -3.614998184865638 0 0 0
368 1 26.34012967070781 16.290810571350097 -1.8074982683803218 0 0 0
369 1 25.985672681159215 18.063208031813215 1.6239395786232793e-06 0 0 0
370 1 28.112448513098684 16.64526000555168 -3.614997848574121 0 0 0
371 1 27.758000923058802 18.417654947937738 -1.807497938719144 0 0 0
372 1 3.6229784338800712 -17.697294861528675 1.8074975367892832 0 0 0
373 1 5.406662273997135 -17.377067667339773 -2.278531391472494e-06 0 0 0
374 1 5.0850304088104465 -15.615034379372378 1.8074977285755258 0 0 0
375 1 7.197781874409301 -17.035285008857613 -1.8075020850602894 0 0 0
376 1 6.858516379621463 -15.266204268940328 -2.092738741272804e-06 0 0 0
377 1 6.5065652726089525 -13.4885403600701 1.8074978347052288 0 0 0
378 1 8.976267994859668 -16.680639743673787 3.614998096035158 0 0 -1
379 1 8.62427958278063 -14.907658737526862 -1.8075019299684527 0 0 0
380 1 8.26469688625805 -13.1285040642103 -2.021654688915131e-06 0 0 0
381 1 7.900408911205801 -11.350662219289763 1.8074979151495312 0 0 0
382 1 10.390554798790774 -14.548904167021538 3.61499823251043 0 0 -1
383 1 10.031642113874696 -12.773418273296521 -1.8075017858352411 0 0 0
384 1 9.675329628405464 -11.000447926423004 -1.8490352712602356e-06 0 0 0
385 1 9.32456365865501 -9.231982298613175 1.8074981070387142 0 0 0
386 1 11.804465369329279 -12.420375878776008 3.6149984425051094 0 0 -1
387 1 11.451575157815824 -10.649316974573656 -1.8075015631312523 0 0 0
388 1 11.100468678340803 -8.878817033200828 -1.6614187749064426e-06 0 0 0
389 1 10.747496762489362 -7.106891369664099 1.807498300738478 0 0 0
390 1 13.225767591650012 -10.29584658411157 3.614998702558729 0 0 -1
391 1 12.872474872234292 -8.523707932242589 -1.8075013620364229 0 0 0
392 1 12.517190371163423 -6.75035557737932 -1.4544535926741544e-06 0 0 0
393 1 12.160359493776724 -4.9766178953028835 1.8074984775582421 0 0 0
394 1 14.643561829107156 -8.168376924340578 3.614998950812532 0 0 -1
395 1 14.288058055280146 -6.39522246896213 -1.8075011514141408 0 0 0
396 1 13.932698373825318 -4.622520727315013 -1.229016673580108e-06 0 0 0
397 1 13.578634453936886 -2.8507570173640744 1.8074987465032273 0 0 0
398 1 16.060170642666222 -6.040887568090547 3.6149992181317554 0 0 -1
399 1 15.705783722239872 -4.268690401232071 -1.8075008694144157 0 0 0
400 1 15.352018036977498 -2.4968063748375897 -9.007997184823369e-07 0 0 0
401 1 14.998208690691968 -0.7246814302888147 1.8074990117704852 0 0 0
402 1 17.478622968947292 -3.9145431104424073 3.614999574059751 0 0 -1
403 1 17.12451941285036 -2.1423124267877505 -1.8075004817542109 0 0 0
404 1 16.77004490469328 -0.36979540616974305 -5.66660824027343e-07 0 0 0
405 1 16.415116324466425 1.4029563422042877 1.8074993353585616 0 0 0
406 1 18.896649905570627 -1.787677987518986 3.6149999646184177 0 0 -1
407 1 18.54198802180649 -0.015114452777709175 -1.8075001089008218 0 0 0
408 1 18.187262173516345 1.7574213306024795 -2.1906718237096892e-07 0 0 0
409 1 17.832775344387144 3.52976454120223 1.8074996683162874 0 0 0
410 1 20.314185871155473 0.3393708666970632 -3.614999663561684 0 0 0
411 1 19.959680597284105 2.1117639278979077 -1.8074997484717357 0 0 0
412 1 19.605344528763183 3.8840604356145043 1.3158077332708907e-07 0 0 0
413 1 19.251071883863617 5.656365198665711 1.8075000582686653 0 0 0
414 1 21.732113659990816 2.4661394696485246 -3.6149993229115265 0 0 0
415 1 21.377745875433973 4.238488025972039 -1.8074994069722354 0 0 0
416 1 21.023323010637128 6.010893000106371 4.907891975891588e-07 0 0 0
417 1 20.668782313207217 7.7833694136009335 1.8075003980258852 0 0 0
418 1 23.150043413642607 4.592970862380422 -3.6149990269523262 0 0 0
419 1 22.79555209690092 6.3654053981256915 -1.8074991370139606 0 0 0
420 1 22.44102354919771 8.137850742596495 7.828728665437712e-07 0 0 0
421 1 22.08652761684344 9.910260316449023 1.8075007357568442 0 0 0
422 1 24.567823458137468 6.719879245714715 -3.614998742247956 0 0 0
423 1 24.213338470617174 8.492291264043942 -1.807498831482222 0 0 0
424 1 23.858893249866128 10.26467677936348 1.131600507850994e-06 0 0 0
425 1 23.50447762615046 12.037051898981272 1.8075010815503914 0 0 0
426 1 25.98567268112987 8.84672938185307 -3.6149983760583657 0 0 0
427 1 25.63123410068333 10.619118092836363 -1.8074984354154835 0 0 0
428 1 25.276790304068427 12.391515312053304 1.4861668987986577e-06 0 0 0