#LAMMPS data file
2504 atoms
2 atom types
-55.3988719000 55.3988719000 xlo xhi
-18.4329573000 18.4329573000 ylo yhi
-3.6150000000 3.6150000000 zlo zhi
0.0 0.0 0.0 xy xz yz

Atoms # atomic

1 1 0.3544806337 16.6605559550 -1.8075000000
2 1 0.0000007959 18.4329555416 0.0000000000
3 1 1.0634403091 13.1157567818 -1.8075000000
4 1 0.7089604714 14.8881563684 0.0000000000
5 1 0.3544806337 16.6605559550 1.8075000000
6 1 0.0000007959 18.4329555416 3.6150000000
7 1 2.4813600580 15.2426362061 -1.8075000000
8 1 2.1268802203 17.0150357928 0.0000000000
9 1 3.8992798069 17.3695156305 -1.8075000000
10 1 0.3544802357 7.4440781842 -1.8075000000
11 1 0.0000003980 9.2164777708 0.0000000000
12 1 1.7723999846 9.5709576085 -1.8075000000
13 1 1.4179201469 11.3433571952 0.0000000000
14 1 1.0634403091 13.1157567818 1.8075000000
15 1 0.7089604714 14.8881563684 3.6150000000
16 1 3.1903197335 11.6978370329 -1.8075000000
17 1 2.8358398957 13.4702366195 0.0000000000
18 1 2.4813600580 15.2426362061 1.8075000000
19 1 2.1268802203 17.0150357928 3.6150000000
20 1 4.6082394824 13.8247164572 -1.8075000000
21 1 4.2537596446 15.5971160439 0.0000000000
22 1 3.8992798069 17.3695156305 1.8075000000
23 1 6.0261592312 15.9515958816 -1.8075000000
24 1 5.6716793935 17.7239954682 0.0000000000
25 1 7.4440789801 18.0784753059 -1.8075000000
26 1 1.0634399112 3.8992790110 -1.8075000000
27 1 0.7089600734 5.6716785976 0.0000000000
28 1 0.3544802357 7.4440781842 1.8075000000
29 1 0.0000003980 9.2164777708 3.6150000000
30 1 2.4813596600 6.0261584353 -1.8075000000
31 1 2.1268798223 7.7985580219 0.0000000000
32 1 1.7723999846 9.5709576085 1.8075000000
33 1 1.4179201469 11.3433571952 3.6150000000
34 1 3.8992794089 8.1530378597 -1.8075000000
35 1 3.5447995712 9.9254374463 0.0000000000
36 1 3.1903197335 11.6978370329 1.8075000000
37 1 2.8358398957 13.4702366195 3.6150000000
38 1 5.3171991578 10.2799172840 -1.8075000000
39 1 4.9627193201 12.0523168706 0.0000000000
40 1 4.6082394824 13.8247164572 1.8075000000
41 1 4.2537596446 15.5971160439 3.6150000000
42 1 6.7351189067 12.4067967084 -1.8075000000
43 1 6.3806390690 14.1791962950 0.0000000000
44 1 6.0261592312 15.9515958816 1.8075000000
45 1 5.6716793935 17.7239954682 3.6150000000
46 1 8.1530386556 14.5336761327 -1.8075000000
47 1 7.7985588179 16.3060757193 0.0000000000
48 1 7.4440789801 18.0784753059 1.8075000000
49 1 9.5709584045 16.6605555571 -1.8075000000
50 1 9.2164785668 18.4329551437 0.0000000000
51 1 0.3544798377 -1.7723995866 -1.8075000000
52 1 0.0000000000 0.0000000000 0.0000000000
53 1 1.7723995866 0.3544798377 -1.8075000000
54 1 1.4179197489 2.1268794243 0.0000000000
55 1 1.0634399112 3.8992790110 1.8075000000
56 1 0.7089600734 5.6716785976 3.6150000000
57 1 3.1903193355 2.4813592621 -1.8075000000
58 1 2.8358394978 4.2537588487 0.0000000000
59 1 2.4813596600 6.0261584353 1.8075000000
60 1 2.1268798223 7.7985580219 3.6150000000
61 1 4.6082390844 4.6082386864 -1.8075000000
62 1 4.2537592467 6.3806382730 0.0000000000
63 1 3.8992794089 8.1530378597 1.8075000000
64 1 3.5447995712 9.9254374463 3.6150000000
65 1 6.0261588333 6.7351181108 -1.8075000000
66 1 5.6716789955 8.5075176974 0.0000000000
67 1 5.3171991578 10.2799172840 1.8075000000
68 1 4.9627193201 12.0523168706 3.6150000000
69 1 7.4440785822 8.8619975351 -1.8075000000
70 1 7.0895987444 10.6343971217 0.0000000000
71 1 6.7351189067 12.4067967084 1.8075000000
72 1 6.3806390690 14.1791962950 3.6150000000
73 1 8.8619983311 10.9888769595 -1.8075000000
74 1 8.5075184933 12.7612765461 0.0000000000
75 1 8.1530386556 14.5336761327 1.8075000000
76 1 7.7985588179 16.3060757193 3.6150000000
77 1 10.2799180799 13.1157563838 -1.8075000000
78 1 9.9254382422 14.8881559704 0.0000000000
79 1 9.5709584045 16.6605555571 1.8075000000
80 1 9.2164785668 18.4329551437 3.6150000000
81 1 11.6978378288 15.2426358082 -1.8075000000
82 1 11.3433579911 17.0150353948 0.0000000000
83 1 13.1157575777 17.3695152325 -1.8075000000
84 1 1.0634395132 -5.3171987599 -1.8075000000
85 1 0.7089596755 -3.5447991732 0.0000000000
86 1 0.3544798377 -1.7723995866 1.8075000000
87 1 0.0000000000 0.0000000000 3.6150000000
88 1 2.4813592621 -3.1903193355 -1.8075000000
89 1 2.1268794243 -1.4179197489 0.0000000000
90 1 1.7723995866 0.3544798377 1.8075000000
91 1 1.4179197489 2.1268794243 3.6150000000
92 1 3.8992790110 -1.0634399112 -1.8075000000
93 1 3.5447991732 0.7089596755 0.0000000000
94 1 3.1903193355 2.4813592621 1.8075000000
95 1 2.8358394978 4.2537588487 3.6150000000
96 1 5.3171987599 1.0634395132 -1.8075000000
97 1 4.9627189221 2.8358390998 0.0000000000
98 1 4.6082390844 4.6082386864 1.8075000000
99 1 4.2537592467 6.3806382730 3.6150000000
100 1 6.7351185087 3.1903189375 -1.8075000000
101 1 6.3806386710 4.9627185242 0.0000000000
102 1 6.0261588333 6.7351181108 1.8075000000
103 1 5.6716789955 8.5075176974 3.6150000000
104 1 8.1530382576 5.3171983619 -1.8075000000
105 1 7.7985584199 7.0895979485 0.0000000000
106 1 7.4440785822 8.8619975351 1.8075000000
107 1 7.0895987444 10.6343971217 3.6150000000
108 1 9.5709580065 7.4440777862 -1.8075000000
109 1 9.2164781688 9.2164773729 0.0000000000
110 1 8.8619983311 10.9888769595 1.8075000000
111 1 8.5075184933 12.7612765461 3.6150000000
112 1 10.9888777554 9.5709572106 -1.8075000000
113 1 10.6343979177 11.3433567972 0.0000000000
114 1 10.2799180799 13.1157563838 1.8075000000
115 1 9.9254382422 14.8881559704 3.6150000000
116 1 12.4067975043 11.6978366349 -1.8075000000
117 1 12.0523176666 13.4702362215 0.0000000000
118 1 11.6978378288 15.2426358082 1.8075000000
119 1 11.3433579911 17.0150353948 3.6150000000
120 1 13.8247172532 13.8247160593 -1.8075000000
121 1 13.4702374154 15.5971156459 0.0000000000
122 1 13.1157575777 17.3695152325 1.8075000000
123 1 15.2426370021 15.9515954836 -1.8075000000
124 1 14.8881571643 17.7239950702 0.0000000000
125 1 16.6605567510 18.0784749080 -1.8075000000
126 1 0.3544794398 -10.9888773574 -1.8075000000
127 1 -0.0000003980 -9.2164777708 0.0000000000
128 1 1.7723991887 -8.8619979331 -1.8075000000
129 1 1.4179193509 -7.0895983465 0.0000000000
130 1 1.0634395132 -5.3171987599 1.8075000000
131 1 0.7089596755 -3.5447991732 3.6150000000
132 1 3.1903189375 -6.7351185087 -1.8075000000
133 1 2.8358390998 -4.9627189221 0.0000000000
134 1 2.4813592621 -3.1903193355 1.8075000000
135 1 2.1268794243 -1.4179197489 3.6150000000
136 1 4.6082386864 -4.6082390844 -1.8075000000
137 1 4.2537588487 -2.8358394978 0.0000000000
138 1 3.8992790110 -1.0634399112 1.8075000000
139 1 3.5447991732 0.7089596755 3.6150000000
140 1 6.0261584353 -2.4813596600 -1.8075000000
141 1 5.6716785976 -0.7089600734 0.0000000000
142 1 5.3171987599 1.0634395132 1.8075000000
143 1 4.9627189221 2.8358390998 3.6150000000
144 1 7.4440781842 -0.3544802357 -1.8075000000
145 1 7.0895983465 1.4179193509 0.0000000000
146 1 6.7351185087 3.1903189375 1.8075000000
147 1 6.3806386710 4.9627185242 3.6150000000
148 1 8.8619979331 1.7723991887 -1.8075000000
149 1 8.5075180954 3.5447987753 0.0000000000
150 1 8.1530382576 5.3171983619 1.8075000000
151 1 7.7985584199 7.0895979485 3.6150000000
152 1 10.2799176820 3.8992786130 -1.8075000000
153 1 9.9254378442 5.6716781996 0.0000000000
154 1 9.5709580065 7.4440777862 1.8075000000
155 1 9.2164781688 9.2164773729 3.6150000000
156 1 11.6978374309 6.0261580373 -1.8075000000
157 1 11.3433575931 7.7985576240 0.0000000000
158 1 10.9888777554 9.5709572106 1.8075000000
159 1 10.6343979177 11.3433567972 3.6150000000
160 1 13.1157571798 8.1530374617 -1.8075000000
161 1 12.7612773420 9.9254370483 0.0000000000
162 1 12.4067975043 11.6978366349 1.8075000000
163 1 12.0523176666 13.4702362215 3.6150000000
164 1 14.5336769286 10.2799168860 -1.8075000000
165 1 14.1791970909 12.0523164727 0.0000000000
166 1 13.8247172532 13.8247160593 1.8075000000
167 1 13.4702374154 15.5971156459 3.6150000000
168 1 15.9515966775 12.4067963104 -1.8075000000
169 1 15.5971168398 14.1791958970 0.0000000000
170 1 15.2426370021 15.9515954836 1.8075000000
171 1 14.8881571643 17.7239950702 3.6150000000
172 1 17.3695164264 14.5336757347 -1.8075000000
173 1 17.0150365887 16.3060753214 0.0000000000
174 1 16.6605567510 18.0784749080 1.8075000000
175 1 18.7874361753 16.6605551591 -1.8075000000
176 1 18.4329563376 18.4329547457 0.0000000000
177 1 1.0634391152 -14.5336765307 -1.8075000000
178 1 0.7089592775 -12.7612769441 0.0000000000
179 1 0.3544794398 -10.9888773574 1.8075000000
180 1 -0.0000003980 -9.2164777708 3.6150000000
181 1 2.4813588641 -12.4067971063 -1.8075000000
182 1 2.1268790264 -10.6343975197 0.0000000000
183 1 1.7723991887 -8.8619979331 1.8075000000
184 1 1.4179193509 -7.0895983465 3.6150000000
185 1 3.8992786130 -10.2799176820 -1.8075000000
186 1 3.5447987753 -8.5075180954 0.0000000000
187 1 3.1903189375 -6.7351185087 1.8075000000
188 1 2.8358390998 -4.9627189221 3.6150000000
189 1 5.3171983619 -8.1530382576 -1.8075000000
190 1 4.9627185242 -6.3806386710 0.0000000000
191 1 4.6082386864 -4.6082390844 1.8075000000
192 1 4.2537588487 -2.8358394978 3.6150000000
193 1 6.7351181108 -6.0261588333 -1.8075000000
194 1 6.3806382730 -4.2537592467 0.0000000000
195 1 6.0261584353 -2.4813596600 1.8075000000
196 1 5.6716785976 -0.7089600734 3.6150000000
197 1 8.1530378597 -3.8992794089 -1.8075000000
198 1 7.7985580219 -2.1268798223 0.0000000000
199 1 7.4440781842 -0.3544802357 1.8075000000
200 1 7.0895983465 1.4179193509 3.6150000000
201 1 9.5709576085 -1.7723999846 -1.8075000000
202 1 9.2164777708 -0.0000003980 0.0000000000
203 1 8.8619979331 1.7723991887 1.8075000000
204 1 8.5075180954 3.5447987753 3.6150000000
205 1 10.9888773574 0.3544794398 -1.8075000000
206 1 10.6343975197 2.1268790264 0.0000000000
207 1 10.2799176820 3.8992786130 1.8075000000
208 1 9.9254378442 5.6716781996 3.6150000000
209 1 12.4067971063 2.4813588641 -1.8075000000
210 1 12.0523172686 4.2537584507 0.0000000000
211 1 11.6978374309 6.0261580373 1.8075000000
212 1 11.3433575931 7.7985576240 3.6150000000
213 1 13.8247168552 4.6082382885 -1.8075000000
214 1 13.4702370175 6.3806378751 0.0000000000
215 1 13.1157571798 8.1530374617 1.8075000000
216 1 12.7612773420 9.9254370483 3.6150000000
217 1 15.2426366041 6.7351177128 -1.8075000000
218 1 14.8881567664 8.5075172994 0.0000000000
219 1 14.5336769286 10.2799168860 1.8075000000
220 1 14.1791970909 12.0523164727 3.6150000000
221 1 16.6605563530 8.8619971372 -1.8075000000
222 1 16.3060765153 10.6343967238 0.0000000000
223 1 15.9515966775 12.4067963104 1.8075000000
224 1 15.5971168398 14.1791958970 3.6150000000
225 1 18.0784761019 10.9888765615 -1.8075000000
226 1 17.7239962641 12.7612761481 0.0000000000
227 1 17.3695164264 14.5336757347 1.8075000000
228 1 17.0150365887 16.3060753214 3.6150000000
229 1 19.4963958508 13.1157559859 -1.8075000000
230 1 19.1419160130 14.8881555725 0.0000000000
231 1 18.7874361753 16.6605551591 1.8075000000
232 1 18.4329563376 18.4329547457 3.6150000000
233 1 20.9143155996 15.2426354102 -1.8075000000
234 1 20.5598357619 17.0150349968 0.0000000000
235 1 22.3322353485 17.3695148345 -1.8075000000
236 1 1.7723987907 -18.0784757039 -1.8075000000
237 1 1.4179189530 -16.3060761173 0.0000000000
238 1 1.0634391152 -14.5336765307 1.8075000000
239 1 0.7089592775 -12.7612769441 3.6150000000
240 1 3.1903185396 -15.9515962796 -1.8075000000
241 1 2.8358387018 -14.1791966929 0.0000000000
242 1 2.4813588641 -12.4067971063 1.8075000000
243 1 2.1268790264 -10.6343975197 3.6150000000
244 1 4.6082382885 -13.8247168552 -1.8075000000
245 1 4.2537584507 -12.0523172686 0.0000000000
246 1 3.8992786130 -10.2799176820 1.8075000000
247 1 3.5447987753 -8.5075180954 3.6150000000
248 1 6.0261580373 -11.6978374309 -1.8075000000
249 1 5.6716781996 -9.9254378442 0.0000000000
250 1 5.3171983619 -8.1530382576 1.8075000000
251 1 4.9627185242 -6.3806386710 3.6150000000
252 1 7.4440777862 -9.5709580065 -1.8075000000
253 1 7.0895979485 -7.7985584199 0.0000000000
254 1 6.7351181108 -6.0261588333 1.8075000000
255 1 6.3806382730 -4.2537592467 3.6150000000
256 1 8.8619975351 -7.4440785822 -1.8075000000
257 1 8.5075176974 -5.6716789955 0.0000000000
258 1 8.1530378597 -3.8992794089 1.8075000000
259 1 7.7985580219 -2.1268798223 3.6150000000
260 1 10.2799172840 -5.3171991578 -1.8075000000
261 1 9.9254374463 -3.5447995712 0.0000000000
262 1 9.5709576085 -1.7723999846 1.8075000000
263 1 9.2164777708 -0.0000003980 3.6150000000
264 1 11.6978370329 -3.1903197335 -1.8075000000
265 1 11.3433571952 -1.4179201469 0.0000000000
266 1 10.9888773574 0.3544794398 1.8075000000
267 1 10.6343975197 2.1268790264 3.6150000000
268 1 13.1157567818 -1.0634403091 -1.8075000000
269 1 12.7612769441 0.7089592775 0.0000000000
270 1 12.4067971063 2.4813588641 1.8075000000
271 1 12.0523172686 4.2537584507 3.6150000000
272 1 14.5336765307 1.0634391152 -1.8075000000
273 1 14.1791966929 2.8358387018 0.0000000000
274 1 13.8247168552 4.6082382885 1.8075000000
275 1 13.4702370175 6.3806378751 3.6150000000
276 1 15.9515962796 3.1903185396 -1.8075000000
277 1 15.5971164418 4.9627181262 0.0000000000
278 1 15.2426366041 6.7351177128 1.8075000000
279 1 14.8881567664 8.5075172994 3.6150000000
280 1 17.3695160284 5.3171979639 -1.8075000000
281 1 17.0150361907 7.0895975505 0.0000000000
282 1 16.6605563530 8.8619971372 1.8075000000
283 1 16.3060765153 10.6343967238 3.6150000000
284 1 18.7874357773 7.4440773883 -1.8075000000
285 1 18.4329559396 9.2164769749 0.0000000000
286 1 18.0784761019 10.9888765615 1.8075000000
287 1 17.7239962641 12.7612761481 3.6150000000
288 1 20.2053555262 9.5709568126 -1.8075000000
289 1 19.8508756885 11.3433563992 0.0000000000
290 1 19.4963958508 13.1157559859 1.8075000000
291 1 19.1419160130 14.8881555725 3.6150000000
292 1 21.6232752751 11.6978362370 -1.8075000000
293 1 21.2687954374 13.4702358236 0.0000000000
294 1 20.9143155996 15.2426354102 1.8075000000
295 1 20.5598357619 17.0150349968 3.6150000000
296 1 23.0411950240 13.8247156613 -1.8075000000
297 1 22.6867151863 15.5971152479 0.0000000000
298 1 22.3322353485 17.3695148345 1.8075000000
299 1 24.4591147729 15.9515950857 -1.8075000000
300 1 24.1046349352 17.7239946723 0.0000000000
301 1 25.8770345218 18.0784745100 -1.8075000000
302 1 1.7723987907 -18.0784757039 1.8075000000
303 1 1.4179189530 -16.3060761173 3.6150000000
304 1 3.5447983773 -17.7239958662 0.0000000000
305 1 3.1903185396 -15.9515962796 1.8075000000
306 1 2.8358387018 -14.1791966929 3.6150000000
307 1 5.3171979639 -17.3695160284 -1.8075000000
308 1 4.9627181262 -15.5971164418 0.0000000000
309 1 4.6082382885 -13.8247168552 1.8075000000
310 1 4.2537584507 -12.0523172686 3.6150000000
311 1 6.7351177128 -15.2426366041 -1.8075000000
312 1 6.3806378751 -13.4702370175 0.0000000000
313 1 6.0261580373 -11.6978374309 1.8075000000
314 1 5.6716781996 -9.9254378442 3.6150000000
315 1 8.1530374617 -13.1157571798 -1.8075000000
316 1 7.7985576240 -11.3433575931 0.0000000000
317 1 7.4440777862 -9.5709580065 1.8075000000
318 1 7.0895979485 -7.7985584199 3.6150000000
319 1 9.5709572106 -10.9888777554 -1.8075000000
320 1 9.2164773729 -9.2164781688 0.0000000000
321 1 8.8619975351 -7.4440785822 1.8075000000
322 1 8.5075176974 -5.6716789955 3.6150000000
323 1 10.9888769595 -8.8619983311 -1.8075000000
324 1 10.6343971217 -7.0895987444 0.0000000000
325 1 10.2799172840 -5.3171991578 1.8075000000
326 1 9.9254374463 -3.5447995712 3.6150000000
327 1 12.4067967084 -6.7351189067 -1.8075000000
328 1 12.0523168706 -4.9627193201 0.0000000000
329 1 11.6978370329 -3.1903197335 1.8075000000
330 1 11.3433571952 -1.4179201469 3.6150000000
331 1 13.8247164572 -4.6082394824 -1.8075000000
332 1 13.4702366195 -2.8358398957 0.0000000000
333 1 13.1157567818 -1.0634403091 1.8075000000
334 1 12.7612769441 0.7089592775 3.6150000000
335 1 15.2426362061 -2.4813600580 -1.8075000000
336 1 14.8881563684 -0.7089604714 0.0000000000
337 1 14.5336765307 1.0634391152 1.8075000000
338 1 14.1791966929 2.8358387018 3.6150000000
339 1 16.6605559550 -0.3544806337 -1.8075000000
340 1 16.3060761173 1.4179189530 0.0000000000
341 1 15.9515962796 3.1903185396 1.8075000000
342 1 15.5971164418 4.9627181262 3.6150000000
343 1 18.0784757039 1.7723987907 -1.8075000000
344 1 17.7239958662 3.5447983773 0.0000000000
345 1 17.3695160284 5.3171979639 1.8075000000
346 1 17.0150361907 7.0895975505 3.6150000000
347 1 19.4963954528 3.8992782150 -1.8075000000
348 1 19.1419156151 5.6716778017 0.0000000000
349 1 18.7874357773 7.4440773883 1.8075000000
350 1 18.4329559396 9.2164769749 3.6150000000
351 1 20.9143152017 6.0261576394 -1.8075000000
352 1 20.5598353640 7.7985572260 0.0000000000
353 1 20.2053555262 9.5709568126 1.8075000000
354 1 19.8508756885 11.3433563992 3.6150000000
355 1 22.3322349506 8.1530370637 -1.8075000000
356 1 21.9777551128 9.9254366503 0.0000000000
357 1 21.6232752751 11.6978362370 1.8075000000
358 1 21.2687954374 13.4702358236 3.6150000000
359 1 23.7501546995 10.2799164881 -1.8075000000
360 1 23.3956748617 12.0523160747 0.0000000000
361 1 23.0411950240 13.8247156613 1.8075000000
362 1 22.6867151863 15.5971152479 3.6150000000
363 1 25.1680744483 12.4067959124 -1.8075000000
364 1 24.8135946106 14.1791954990 0.0000000000
365 1 24.4591147729 15.9515950857 1.8075000000
366 1 24.1046349352 17.7239946723 3.6150000000
367 1 26.5859941972 14.5336753368 -1.8075000000
368 1 26.2315143595 16.3060749234 0.0000000000
369 1 25.8770345218 18.0784745100 1.8075000000
370 1 28.0039139461 16.6605547611 -1.8075000000
371 1 27.6494341084 18.4329543477 0.0000000000
372 1 3.5447983773 -17.7239958662 3.6150000000
373 1 5.3171979639 -17.3695160284 1.8075000000
374 1 4.9627181262 -15.5971164418 3.6150000000
375 1 7.0895975505 -17.0150361907 0.0000000000
376 1 6.7351177128 -15.2426366041 1.8075000000
377 1 6.3806378751 -13.4702370175 3.6150000000
378 1 8.8619971372 -16.6605563530 -1.8075000000
379 1 8.5075172994 -14.8881567664 0.0000000000
380 1 8.1530374617 -13.1157571798 1.8075000000
381 1 7.7985576240 -11.3433575931 3.6150000000
382 1 10.2799168860 -14.5336769286 -1.8075000000
383 1 9.9254370483 -12.7612773420 0.0000000000
384 1 9.5709572106 -10.9888777554 1.8075000000
385 1 9.2164773729 -9.2164781688 3.6150000000
386 1 11.6978366349 -12.4067975043 -1.8075000000
387 1 11.3433567972 -10.6343979177 0.0000000000
388 1 10.9888769595 -8.8619983311 1.8075000000
389 1 10.6343971217 -7.0895987444 3.6150000000
390 1 13.1157563838 -10.2799180799 -1.8075000000
391 1 12.7612765461 -8.5075184933 0.0000000000
392 1 12.4067967084 -6.7351189067 1.8075000000
393 1 12.0523168706 -4.9627193201 3.6150000000
394 1 14.5336761327 -8.1530386556 -1.8075000000
395 1 14.1791962950 -6.3806390690 0.0000000000
396 1 13.8247164572 -4.6082394824 1.8075000000
397 1 13.4702366195 -2.8358398957 3.6150000000
398 1 15.9515958816 -6.0261592312 -1.8075000000
399 1 15.5971160439 -4.2537596446 0.0000000000
400 1 15.2426362061 -2.4813600580 1.8075000000
401 1 14.8881563684 -0.7089604714 3.6150000000
402 1 17.3695156305 -3.8992798069 -1.8075000000
403 1 17.0150357928 -2.1268802203 0.0000000000
404 1 16.6605559550 -0.3544806337 1.8075000000
405 1 16.3060761173 1.4179189530 3.6150000000
406 1 18.7874353794 -1.7724003825 -1.8075000000
407 1 18.4329555416 -0.0000007959 0.0000000000
408 1 18.0784757039 1.7723987907 1.8075000000
409 1 17.7239958662 3.5447983773 3.6150000000
410 1 20.2053551283 0.3544790418 -1.8075000000
411 1 19.8508752905 2.1268786284 0.0000000000
412 1 19.4963954528 3.8992782150 1.8075000000
413 1 19.1419156151 5.6716778017 3.6150000000
414 1 21.6232748771 2.4813584661 -1.8075000000
415 1 21.2687950394 4.2537580528 0.0000000000
416 1 20.9143152017 6.0261576394 1.8075000000
417 1 20.5598353640 7.7985572260 3.6150000000
418 1 23.0411946260 4.6082378905 -1.8075000000
419 1 22.6867147883 6.3806374771 0.0000000000
420 1 22.3322349506 8.1530370637 1.8075000000
421 1 21.9777551128 9.9254366503 3.6150000000
422 1 24.4591143749 6.7351173148 -1.8075000000
423 1 24.1046345372 8.5075169015 0.0000000000
424 1 23.7501546995 10.2799164881 1.8075000000
425 1 23.3956748617 12.0523160747 3.6150000000
426 1 25.8770341238 8.8619967392 -1.8075000000
427 1 25.5225542861 10.6343963258 0.0000000000
428 1 25.1680744483 12.4067959124 1.8075000000
429 1 24.8135946106 14.1791954990 3.6150000000
430 1 27.2949538727 10.9888761635 -1.8075000000
431 1 26.9404740350 12.7612757502 0.0000000000
432 1 26.5859941972 14.5336753368 1.8075000000
433 1 26.2315143595 16.3060749234 3.6150000000
434 1 28.7128736216 13.1157555879 -1.8075000000
435 1 28.3583937838 14.8881551745 0.0000000000
436 1 28.0039139461 16.6605547611 1.8075000000
437 1 27.6494341084 18.4329543477 3.6150000000
438 1 30.1307933705 15.2426350122 -1.8075000000
439 1 29.7763135327 17.0150345989 0.0000000000
440 1 31.5487131194 17.3695144366 -1.8075000000
441 1 7.0895975505 -17.0150361907 3.6150000000
442 1 8.8619971372 -16.6605563530 1.8075000000
443 1 8.5075172994 -14.8881567664 3.6150000000
444 1 10.9888765615 -18.0784761019 -1.8075000000
445 1 10.6343967238 -16.3060765153 0.0000000000
446 1 10.2799168860 -14.5336769286 1.8075000000
447 1 9.9254370483 -12.7612773420 3.6150000000
448 1 12.4067963104 -15.9515966775 -1.8075000000
449 1 12.0523164727 -14.1791970909 0.0000000000
450 1 11.6978366349 -12.4067975043 1.8075000000
451 1 11.3433567972 -10.6343979177 3.6150000000
452 1 13.8247160593 -13.8247172532 -1.8075000000
453 1 13.4702362215 -12.0523176666 0.0000000000
454 1 13.1157563838 -10.2799180799 1.8075000000
455 1 12.7612765461 -8.5075184933 3.6150000000
456 1 15.2426358082 -11.6978378288 -1.8075000000
457 1 14.8881559704 -9.9254382422 0.0000000000
458 1 14.5336761327 -8.1530386556 1.8075000000
459 1 14.1791962950 -6.3806390690 3.6150000000
460 1 16.6605555571 -9.5709584045 -1.8075000000
461 1 16.3060757193 -7.7985588179 0.0000000000
462 1 15.9515958816 -6.0261592312 1.8075000000
463 1 15.5971160439 -4.2537596446 3.6150000000
464 1 18.0784753059 -7.4440789801 -1.8075000000
465 1 17.7239954682 -5.6716793935 0.0000000000
466 1 17.3695156305 -3.8992798069 1.8075000000
467 1 17.0150357928 -2.1268802203 3.6150000000
468 1 19.4963950548 -5.3171995558 -1.8075000000
469 1 19.1419152171 -3.5447999692 0.0000000000
470 1 18.7874353794 -1.7724003825 1.8075000000
471 1 18.4329555416 -0.0000007959 3.6150000000
472 1 20.9143148037 -3.1903201314 -1.8075000000
473 1 20.5598349660 -1.4179205448 0.0000000000
474 1 20.2053551283 0.3544790418 1.8075000000
475 1 19.8508752905 2.1268786284 3.6150000000
476 1 22.3322345526 -1.0634407071 -1.8075000000
477 1 21.9777547149 0.7089588795 0.0000000000
478 1 21.6232748771 2.4813584661 1.8075000000
479 1 21.2687950394 4.2537580528 3.6150000000
480 1 23.7501543015 1.0634387173 -1.8075000000
481 1 23.3956744638 2.8358383039 0.0000000000
482 1 23.0411946260 4.6082378905 1.8075000000
483 1 22.6867147883 6.3806374771 3.6150000000
484 1 25.1680740504 3.1903181416 -1.8075000000
485 1 24.8135942126 4.9627177282 0.0000000000
486 1 24.4591143749 6.7351173148 1.8075000000
487 1 24.1046345372 8.5075169015 3.6150000000
488 1 26.5859937993 5.3171975660 -1.8075000000
489 1 26.2315139615 7.0895971526 0.0000000000
490 1 25.8770341238 8.8619967392 1.8075000000
491 1 25.5225542861 10.6343963258 3.6150000000
492 1 28.0039135482 7.4440769903 -1.8075000000
493 1 27.6494337104 9.2164765769 0.0000000000
494 1 27.2949538727 10.9888761635 1.8075000000
495 1 26.9404740350 12.7612757502 3.6150000000
496 1 29.4218332970 9.5709564147 -1.8075000000
497 1 29.0673534593 11.3433560013 0.0000000000
498 1 28.7128736216 13.1157555879 1.8075000000
499 1 28.3583937838 14.8881551745 3.6150000000
500 1 30.8397530459 11.6978358390 -1.8075000000
501 1 30.4852732082 13.4702354256 0.0000000000
502 1 30.1307933705 15.2426350122 1.8075000000
503 1 29.7763135327 17.0150345989 3.6150000000
504 1 32.2576727948 13.8247152633 -1.8075000000
505 1 31.9031929571 15.5971148500 0.0000000000
506 1 31.5487131194 17.3695144366 1.8075000000
507 1 33.6755925437 15.9515946877 -1.8075000000
508 1 33.3211127060 17.7239942743 0.0000000000
509 1 35.0935122926 18.0784741120 -1.8075000000
510 1 10.9888765615 -18.0784761019 1.8075000000
511 1 10.6343967238 -16.3060765153 3.6150000000
512 1 12.7612761481 -17.7239962641 0.0000000000
513 1 12.4067963104 -15.9515966775 1.8075000000
514 1 12.0523164727 -14.1791970909 3.6150000000
515 1 14.5336757347 -17.3695164264 -1.8075000000
516 1 14.1791958970 -15.5971168398 0.0000000000
517 1 13.8247160593 -13.8247172532 1.8075000000
518 1 13.4702362215 -12.0523176666 3.6150000000
519 1 15.9515954836 -15.2426370021 -1.8075000000
520 1 15.5971156459 -13.4702374154 0.0000000000
521 1 15.2426358082 -11.6978378288 1.8075000000
522 1 14.8881559704 -9.9254382422 3.6150000000
523 1 17.3695152325 -13.1157575777 -1.8075000000
524 1 17.0150353948 -11.3433579911 0.0000000000
525 1 16.6605555571 -9.5709584045 1.8075000000
526 1 16.3060757193 -7.7985588179 3.6150000000
527 1 18.7874349814 -10.9888781534 -1.8075000000
528 1 18.4329551437 -9.2164785668 0.0000000000
529 1 18.0784753059 -7.4440789801 1.8075000000
530 1 17.7239954682 -5.6716793935 3.6150000000
531 1 20.2053547303 -8.8619987290 -1.8075000000
532 1 19.8508748926 -7.0895991424 0.0000000000
533 1 19.4963950548 -5.3171995558 1.8075000000
534 1 19.1419152171 -3.5447999692 3.6150000000
535 1 21.6232744792 -6.7351193047 -1.8075000000
536 1 21.2687946414 -4.9627197181 0.0000000000
537 1 20.9143148037 -3.1903201314 1.8075000000
538 1 20.5598349660 -1.4179205448 3.6150000000
539 1 23.0411942281 -4.6082398803 -1.8075000000
540 1 22.6867143903 -2.8358402937 0.0000000000
541 1 22.3322345526 -1.0634407071 1.8075000000
542 1 21.9777547149 0.7089588795 3.6150000000
543 1 24.4591139770 -2.4813604560 -1.8075000000
544 1 24.1046341392 -0.7089608694 0.0000000000
545 1 23.7501543015 1.0634387173 1.8075000000
546 1 23.3956744638 2.8358383039 3.6150000000
547 1 25.8770337258 -0.3544810316 -1.8075000000
548 1 25.5225538881 1.4179185550 0.0000000000
549 1 25.1680740504 3.1903181416 1.8075000000
550 1 24.8135942126 4.9627177282 3.6150000000
551 1 27.2949534747 1.7723983927 -1.8075000000
552 1 26.9404736370 3.5447979793 0.0000000000
553 1 26.5859937993 5.3171975660 1.8075000000
554 1 26.2315139615 7.0895971526 3.6150000000
555 1 28.7128732236 3.8992778171 -1.8075000000
556 1 28.3583933859 5.6716774037 0.0000000000
557 1 28.0039135482 7.4440769903 1.8075000000
558 1 27.6494337104 9.2164765769 3.6150000000
559 1 30.1307929725 6.0261572414 -1.8075000000
560 1 29.7763131348 7.7985568280 0.0000000000
561 1 29.4218332970 9.5709564147 1.8075000000
562 1 29.0673534593 11.3433560013 3.6150000000
563 1 31.5487127214 8.1530366658 -1.8075000000
564 1 31.1942328837 9.9254362524 0.0000000000
565 1 30.8397530459 11.6978358390 1.8075000000
566 1 30.4852732082 13.4702354256 3.6150000000
567 1 32.9666324703 10.2799160901 -1.8075000000
568 1 32.6121526325 12.0523156767 0.0000000000
569 1 32.2576727948 13.8247152633 1.8075000000
570 1 31.9031929571 15.5971148500 3.6150000000
571 1 34.3845522192 12.4067955145 -1.8075000000
572 1 34.0300723814 14.1791951011 0.0000000000
573 1 33.6755925437 15.9515946877 1.8075000000
574 1 33.3211127060 17.7239942743 3.6150000000
575 1 35.8024719681 14.5336749388 -1.8075000000
576 1 35.4479921303 16.3060745254 0.0000000000
577 1 35.0935122926 18.0784741120 1.8075000000
578 1 37.2203917169 16.6605543632 -1.8075000000
579 1 36.8659118792 18.4329539498 0.0000000000
580 1 12.7612761481 -17.7239962641 3.6150000000
581 1 14.5336757347 -17.3695164264 1.8075000000
582 1 14.1791958970 -15.5971168398 3.6150000000
583 1 16.3060753214 -17.0150365887 0.0000000000
584 1 15.9515954836 -15.2426370021 1.8075000000
585 1 15.5971156459 -13.4702374154 3.6150000000
586 1 18.0784749080 -16.6605567510 -1.8075000000
587 1 17.7239950702 -14.8881571643 0.0000000000
588 1 17.3695152325 -13.1157575777 1.8075000000
589 1 17.0150353948 -11.3433579911 3.6150000000
590 1 19.4963946569 -14.5336773266 -1.8075000000
591 1 19.1419148191 -12.7612777400 0.0000000000
592 1 18.7874349814 -10.9888781534 1.8075000000
593 1 18.4329551437 -9.2164785668 3.6150000000
594 1 20.9143144058 -12.4067979023 -1.8075000000
595 1 20.5598345680 -10.6343983156 0.0000000000
596 1 20.2053547303 -8.8619987290 1.8075000000
597 1 19.8508748926 -7.0895991424 3.6150000000
598 1 22.3322341546 -10.2799184779 -1.8075000000
599 1 21.9777543169 -8.5075188913 0.0000000000
600 1 21.6232744792 -6.7351193047 1.8075000000
601 1 21.2687946414 -4.9627197181 3.6150000000
602 1 23.7501539035 -8.1530390536 -1.8075000000
603 1 23.3956740658 -6.3806394669 0.0000000000
604 1 23.0411942281 -4.6082398803 1.8075000000
605 1 22.6867143903 -2.8358402937 3.6150000000
606 1 25.1680736524 -6.0261596292 -1.8075000000
607 1 24.8135938147 -4.2537600426 0.0000000000
608 1 24.4591139770 -2.4813604560 1.8075000000
609 1 24.1046341392 -0.7089608694 3.6150000000
610 1 26.5859934013 -3.8992802049 -1.8075000000
611 1 26.2315135636 -2.1268806182 0.0000000000
612 1 25.8770337258 -0.3544810316 1.8075000000
613 1 25.5225538881 1.4179185550 3.6150000000
614 1 28.0039131502 -1.7724007805 -1.8075000000
615 1 27.6494333125 -0.0000011939 0.0000000000
616 1 27.2949534747 1.7723983927 1.8075000000
617 1 26.9404736370 3.5447979793 3.6150000000
618 1 29.4218328991 0.3544786438 -1.8075000000
619 1 29.0673530613 2.1268782305 0.0000000000
620 1 28.7128732236 3.8992778171 1.8075000000
621 1 28.3583933859 5.6716774037 3.6150000000
622 1 30.8397526480 2.4813580682 -1.8075000000
623 1 30.4852728102 4.2537576548 0.0000000000
624 1 30.1307929725 6.0261572414 1.8075000000
625 1 29.7763131348 7.7985568280 3.6150000000
626 1 32.2576723968 4.6082374925 -1.8075000000
627 1 31.9031925591 6.3806370791 0.0000000000
628 1 31.5487127214 8.1530366658 1.8075000000
629 1 31.1942328837 9.9254362524 3.6150000000
630 1 33.6755921457 6.7351169169 -1.8075000000
631 1 33.3211123080 8.5075165035 0.0000000000
632 1 32.9666324703 10.2799160901 1.8075000000
633 1 32.6121526325 12.0523156767 3.6150000000
634 1 35.0935118946 8.8619963412 -1.8075000000
635 1 34.7390320569 10.6343959278 0.0000000000
636 1 34.3845522192 12.4067955145 1.8075000000
637 1 34.0300723814 14.1791951011 3.6150000000
638 1 36.5114316435 10.9888757656 -1.8075000000
639 1 36.1569518058 12.7612753522 0.0000000000
640 1 35.8024719681 14.5336749388 1.8075000000