#LAMMPS data file
2504 atoms
2 atom types
-55.4988719000 55.4988719000 xlo xhi
-18.4329573000 18.4329573000 ylo yhi
-3.6150000000 3.6150000000 zlo zhi
0.0 0.0 0.0 xy xz yz

Atoms # atomic

1 1 0.4345874812 16.5194422342 -3.5688022710
2 1 0.1196907434 18.2129886820 -1.7613022698
3 1 1.1550900645 12.9427550125 -3.5688022729
4 1 0.7815691649 14.7517799189 -1.7613022619
5 1 0.4345874812 16.5194422342 0.0461977290
6 1 0.1196907434 18.2129886820 1.8536977302
7 1 2.5652529996 15.0720073113 -3.5688022497
8 1 2.2436210520 16.8340405803 -1.7613022533
9 1 4.0171070560 17.1828709265 -3.5688022247
10 1 0.4345875894 7.3029635168 -3.5688022942
11 1 0.1196908306 8.9965099480 -1.7613022859
12 1 1.9055234578 9.3801069682 -3.5688022725
13 1 1.5380223381 11.1434025747 -1.7613022747
14 1 1.1550900645 12.9427550125 0.0461977271
15 1 0.7815691649 14.7517799189 1.8536977381
16 1 3.2925884626 11.5250674831 -3.5688022429
17 1 2.9163626907 13.3011995288 -1.7613022469
18 1 2.5652529996 15.0720073113 0.0461977503
19 1 2.2436210520 16.8340405803 1.8536977467
20 1 4.7004007475 13.6510847739 -3.5688022126
21 1 4.3563725578 15.4137901948 -1.7613022151
22 1 4.0171070560 17.1828709265 0.0461977753
23 1 6.1348586718 15.7684356054 -3.5688021734
24 1 5.7828703124 17.5414165583 -1.7613021887
25 1 7.5491455818 17.9001711832 -3.5688021371
26 1 1.1550901456 3.7262763543 -3.5688022938
27 1 0.7815692639 5.5353012249 -1.7613022903
28 1 0.4345875894 7.3029635168 0.0461977058
29 1 0.1196908306 8.9965099480 1.8536977141
30 1 2.5652531229 5.8555286060 -3.5688022707
31 1 2.2436211611 7.6175618560 -1.7613022748
32 1 1.9055234578 9.3801069682 0.0461977275
33 1 1.5380223381 11.1434025747 1.8536977253
34 1 4.0171071597 7.9663922130 -3.5688022414
35 1 3.6651560438 9.7440560612 -1.7613022459
36 1 3.2925884626 11.5250674831 0.0461977571
37 1 2.9163626907 13.3011995288 1.8536977531
38 1 5.4232877312 10.1040924665 -3.5688022049
39 1 5.0589997401 11.8819342779 -1.7613022119
40 1 4.7004007475 13.6510847739 0.0461977874
41 1 4.3563725578 15.4137901948 1.8536977849
42 1 6.8339204470 12.2321487276 -3.5688021654
43 1 6.4831543799 14.0006143753 -1.7613021700
44 1 6.1348586718 15.7684356054 0.0461978266
45 1 5.7828703124 17.5414165583 1.8536978113
46 1 8.2590593713 14.3537797766 -3.5688021140
47 1 7.9060874670 16.1257054123 -1.7613021244
48 1 7.5491455818 17.9001711832 0.0461978629
49 1 9.6757811328 16.4822412619 -3.5688020729
50 1 9.3189503145 18.2559789313 -1.7613020844
51 1 0.4345876194 -1.9135150648 -3.5688023053
52 1 0.1196908614 -0.2199686393 -1.7613023028
53 1 1.9055235065 0.1636283689 -3.5688022863
54 1 1.5380224015 1.9269239495 -1.7613022943
55 1 1.1550901456 3.7262763543 0.0461977062
56 1 0.7815692639 5.5353012249 1.8536977097
57 1 3.2925885553 2.3085888426 -3.5688022575
58 1 2.9163628033 4.0847208561 -1.7613022664
59 1 2.5652531229 5.8555286060 0.0461977293
60 1 2.2436211611 7.6175618560 1.8536977252
61 1 4.7004008851 4.4346060925 -3.5688022272
62 1 4.3563726893 6.1973114912 -1.7613022323
63 1 4.0171071597 7.9663922130 0.0461977586
64 1 3.6651560438 9.7440560612 1.8536977541
65 1 6.1348587924 6.5519569191 -3.5688021907
66 1 5.7828703953 8.3249378676 -1.7613022063
67 1 5.4232877312 10.1040924665 0.0461977951
68 1 5.0589997401 11.8819342779 1.8536977881
69 1 7.5491456439 8.6836925198 -3.5688021543
70 1 7.1902329871 10.4591783870 -1.7613021658
71 1 6.8339204470 12.2321487276 0.0461978346
72 1 6.4831543799 14.0006143753 1.8536978300
73 1 8.9630562065 10.8122209225 -3.5688021059
74 1 8.6101659417 12.5832798142 -1.7613021121
75 1 8.2590593713 14.3537797766 0.0461978860
76 1 7.9060874670 16.1257054123 1.8536978756
77 1 10.3843583286 12.9367503326 -3.5688020426
78 1 10.0310655868 14.7088889517 -1.7613020615
79 1 9.6757811328 16.4822412619 0.0461979271
80 1 9.3189503145 18.2559789313 1.8536979156
81 1 11.8021525432 15.0642200516 -3.5688019919
82 1 11.4466488704 16.8373744641 -1.7613020180
83 1 13.2187615624 17.1917093323 -3.5688019530
84 1 1.1550901625 -5.4902022333 -3.5688022938
85 1 0.7815692914 -3.6811773590 -1.7613022937
86 1 0.4345876194 -1.9135150648 0.0461976947
87 1 0.1196908614 -0.2199686393 1.8536976972
88 1 2.5652531500 -3.3609499807 -3.5688022781
89 1 2.2436211978 -1.5989167304 -1.7613022854
90 1 1.9055235065 0.1636283689 0.0461977137
91 1 1.5380224015 1.9269239495 1.8536977057
92 1 4.0171072113 -1.2500863836 -3.5688022526
93 1 3.6651561151 0.5275774489 -1.7613022592
94 1 3.2925885553 2.3085888426 0.0461977425
95 1 2.9163628033 4.0847208561 1.8536977336
96 1 5.4232878253 0.8876138446 -3.5688022177
97 1 5.0589998592 2.6654556271 -1.7613022260
98 1 4.7004008851 4.4346060925 0.0461977728
99 1 4.3563726893 6.1973114912 1.8536977677
100 1 6.8339205903 3.0156700751 -3.5688021821
101 1 6.4831545244 4.7841357024 -1.7613021871
102 1 6.1348587924 6.5519569191 0.0461978092
103 1 5.7828703953 8.3249378676 1.8536977937
104 1 8.2590595078 5.1373011257 -3.5688021345
105 1 7.9060875715 6.9092267548 -1.7613021430
106 1 7.5491456439 8.6836925198 0.0461978457
107 1 7.1902329871 10.4591783870 1.8536978342
108 1 9.6757812214 7.2657626320 -3.5688020892
109 1 9.3189503627 9.0395002918 -1.7613020959
110 1 8.9630562065 10.8122209225 0.0461978941
111 1 8.6101659417 12.5832798142 1.8536978879
112 1 11.0912892819 9.3935975195 -3.5688020342
113 1 10.7372252982 11.1653612055 -1.7613020365
114 1 10.3843583286 12.9367503326 0.0461979574
115 1 10.0310655868 14.7088889517 1.8536979385
116 1 12.5106088208 11.5193119588 -3.5688019797
117 1 12.1567993777 13.2914369083 -1.7613019813
118 1 11.8021525432 15.0642200516 0.0461980081
119 1 11.4466488704 16.8373744641 1.8536979820
120 1 13.9286355404 13.6463230256 -3.5688019226
121 1 13.5737071203 15.4190747210 -1.7613019399
122 1 13.2187615624 17.1917093323 0.0461980470
123 1 15.3458531085 15.7735396045 -3.5688018831
124 1 14.9913663163 17.5458827496 -1.7613018959
125 1 16.7639353944 17.9001785531 -3.5688018313
126 1 0.4345875552 -11.1299936667 -3.5688022891
127 1 0.1196908211 -9.4364472294 -1.7613022874
128 1 1.9055234698 -9.0528502379 -3.5688022739
129 1 1.5380223942 -7.2895546448 -1.7613022866
130 1 1.1550901625 -5.4902022333 0.0461977062
131 1 0.7815692914 -3.6811773590 1.8536977063
132 1 3.2925885513 -6.9078897655 -3.5688022547
133 1 2.9163628184 -5.1317577372 -1.7613022688
134 1 2.5652531500 -3.3609499807 0.0461977219
135 1 2.2436211978 -1.5989167304 1.8536977146
136 1 4.7004008975 -4.7818725025 -3.5688022330
137 1 4.3563727227 -3.0191671005 -1.7613022407
138 1 4.0171072113 -1.2500863836 0.0461977474
139 1 3.6651561151 0.5275774489 1.8536977408
140 1 6.1348588356 -2.6645216838 -3.5688022012
141 1 5.7828704660 -0.8915407371 -1.7613022197
142 1 5.4232878253 0.8876138446 0.0461977823
143 1 5.0589998592 2.6654556271 1.8536977740
144 1 7.5491457304 -0.5327860916 -3.5688021693
145 1 7.1902331063 1.2426997604 -1.7613021809
146 1 6.8339205903 3.0156700751 0.0461978179
147 1 6.4831545244 4.7841357024 1.8536978129
148 1 8.9630563384 1.5957422948 -3.5688021262
149 1 8.6101660910 3.3668011730 -1.7613021324
150 1 8.2590595078 5.1373011257 0.0461978655
151 1 7.9060875715 6.9092267548 1.8536978570
152 1 10.3843584658 3.7202717105 -3.5688020658
153 1 10.0310657089 5.4924103272 -1.7613020811
154 1 9.6757812214 7.2657626320 0.0461979108
155 1 9.3189503627 9.0395002918 1.8536979041
156 1 11.8021526480 5.8477414456 -3.5688020038
157 1 11.4466489493 7.6208958573 -1.7613020262
158 1 11.0912892819 9.3935975195 0.0461979658
159 1 10.7372252982 11.1653612055 1.8536979635
160 1 13.2187616362 7.9752307358 -3.5688019540
161 1 12.8643746713 9.7474278827 -1.7613019679
162 1 12.5106088208 11.5193119588 0.0461980203
163 1 12.1567993777 13.2914369083 1.8536980187
164 1 14.6372138144 10.1015752127 -3.5688019018
165 1 14.2831100899 11.8738059748 -1.7613019134
166 1 13.9286355404 13.6463230256 0.0461980774
167 1 13.5737071203 15.4190747210 1.8536980601
168 1 16.0552403635 12.2284405234 -3.5688018535
169 1 15.7005787143 14.0010040162 -1.7613018719
170 1 15.3458531085 15.7735396045 0.0461981169
171 1 14.9913663163 17.5458827496 1.8536981041
172 1 17.4727768992 14.3554891098 -3.5688018162
173 1 17.1182717691 16.1278819720 -1.7613018235
174 1 16.7639353944 17.9001785531 0.0461981687
175 1 18.8907048536 16.4822572859 -3.5688017595
176 1 18.5363362818 18.2546063578 -1.7613017685
177 1 1.1550900649 -14.7066808625 -3.5688022820
178 1 0.7815692092 -12.8976559732 -1.7613022786
179 1 0.4345875552 -11.1299936667 0.0461977109
180 1 0.1196908211 -9.4364472294 1.8536977126
181 1 2.5652530646 -12.5774286017 -3.5688022624
182 1 2.2436211353 -10.8153953465 -1.7613022680
183 1 1.9055234698 -9.0528502379 0.0461977261
184 1 1.5380223942 -7.2895546448 1.8536977134
185 1 4.0171071538 -10.4665650139 -3.5688022385
186 1 3.6651560840 -8.6889011675 -1.7613022472
187 1 3.2925885513 -6.9078897655 0.0461977453
188 1 2.9163628184 -5.1317577372 1.8536977312
189 1 5.4232877948 -8.3288647849 -3.5688022094
190 1 5.0589998527 -6.5510229848 -1.7613022223
191 1 4.7004008975 -4.7818725025 0.0461977670
192 1 4.3563727227 -3.0191671005 1.8536977593
193 1 6.8339205756 -6.2008085443 -3.5688021787
194 1 6.4831545388 -4.4323429040 -1.7613021919
195 1 6.1348588356 -2.6645216838 0.0461977988
196 1 5.7828704660 -0.8915407371 1.8536977803
197 1 8.2590595280 -4.0791774996 -3.5688021411
198 1 7.9060876257 -2.3072518590 -1.7613021552
199 1 7.5491457304 -0.5327860916 0.0461978307
200 1 7.1902331063 1.2426997604 1.8536978191
201 1 9.6757812793 -1.9507159978 -3.5688021040
202 1 9.3189504597 -0.1769783302 -1.7613021150
203 1 8.9630563384 1.5957422948 0.0461978738
204 1 8.6101660910 3.3668011730 1.8536978676
205 1 11.0912893812 0.1771188872 -3.5688020510
206 1 10.7372254266 1.9488825783 -1.7613020578
207 1 10.3843584658 3.7202717105 0.0461979342
208 1 10.0310657089 5.4924103272 1.8536979189
209 1 12.5106089362 2.3028333323 -3.5688019949
210 1 12.1567994950 4.0749582961 -1.7613019990
211 1 11.8021526480 5.8477414456 0.0461979962
212 1 11.4466489493 7.6208958573 1.8536979738
213 1 13.9286356388 4.4298444204 -3.5688019287
214 1 13.5737072125 6.2025961224 -1.7613019445
215 1 13.2187616362 7.9752307358 0.0461980460
216 1 12.8643746713 9.7474278827 1.8536980321
217 1 15.3458531913 6.5570610117 -3.5688018817
218 1 14.9913663811 8.3294041562 -1.7613018908
219 1 14.6372138144 10.1015752127 0.0461980982
220 1 14.2831100899 11.8738059748 1.8536980866
221 1 16.7639354613 8.6836999678 -3.5688018312
222 1 16.4096624457 10.4560049707 -1.7613018439
223 1 16.0552403635 12.2284405234 0.0461981465
224 1 15.7005787143 14.0010040162 1.8536981281
225 1 18.1819131610 10.8105330650 -3.5688017806
226 1 17.8273728390 12.5830093517 -1.7613017963
227 1 17.4727768992 14.3554891098 0.0461981838
228 1 17.1182717691 16.1278819720 1.8536981765
229 1 19.5996147528 12.9374903779 -3.5688017324
230 1 19.2451192671 14.7098993911 -1.7613017500
231 1 18.8907048536 16.4822572859 0.0461982405
232 1 18.5363362818 18.2546063578 1.8536982315
233 1 21.0174852841 15.0643153566 -3.5688016843
234 1 20.6630679920 16.8366913892 -1.7613016933
235 1 22.4353785749 17.1911562660 -3.5688016402
236 1 1.9055233736 -18.2693289003 -3.5688022585
237 1 1.5380222935 -16.5060332935 -1.7613022712
238 1 1.1550900649 -14.7066808625 0.0461977180
239 1 0.7815692092 -12.8976559732 1.8536977214
240 1 3.2925884464 -16.1243684092 -3.5688022419
241 1 2.9163627199 -14.3482363736 -1.7613022556
242 1 2.5652530646 -12.5774286017 0.0461977376
243 1 2.2436211353 -10.8153953465 1.8536977320
244 1 4.7004007979 -13.9983511447 -3.5688022178
245 1 4.3563726407 -12.2356457347 -1.7613022264
246 1 4.0171071538 -10.4665650139 0.0461977615
247 1 3.6651560840 -8.6889011675 1.8536977528
248 1 6.1348587583 -11.8810003326 -3.5688021854
249 1 5.7828704107 -10.1080193790 -1.7613022045
250 1 5.4232877948 -8.3288647849 0.0461977906
251 1 5.0589998527 -6.5510229848 1.8536977777
252 1 7.5491456730 -9.7492647484 -3.5688021554
253 1 7.1902330671 -7.9737788793 -1.7613021708
254 1 6.8339205756 -6.2008085443 0.0461978213
255 1 6.4831545388 -4.4323429040 1.8536978081
256 1 8.9630562924 -7.6207363574 -3.5688021186
257 1 8.6101660759 -5.8496774640 -1.7613021314
258 1 8.2590595280 -4.0791774996 0.0461978589
259 1 7.9060876257 -2.3072518590 1.8536978448
260 1 10.3843584515 -5.4962069461 -3.5688020685
261 1 10.0310657273 -3.7240683157 -1.7613020895
262 1 9.6757812793 -1.9507159978 0.0461978960
263 1 9.3189504597 -0.1769783302 1.8536978850
264 1 11.8021526702 -3.3687372114 -3.5688020118
265 1 11.4466490085 -1.5955827900 -1.7613020391
266 1 11.0912893812 0.1771188872 0.0461979490
267 1 10.7372254266 1.9488825783 1.8536979422
268 1 13.2187616896 -1.2412479181 -3.5688019618
269 1 12.8643747594 0.5309492418 -1.7613019804
270 1 12.5106089362 2.3028333323 0.0461980051
271 1 12.1567994950 4.0749582961 1.8536980010
272 1 14.6372138871 0.8850965752 -3.5688019067
273 1 14.2831101818 2.6573273548 -1.7613019201
274 1 13.9286356388 4.4298444204 0.0461980713
275 1 13.5737072125 6.2025961224 1.8536980555
276 1 16.0552404345 3.0119619128 -3.5688018547
277 1 15.7005787973 4.7845254161 -1.7613018695
278 1 15.3458531913 6.5570610117 0.0461981183
279 1 14.9913663811 8.3294041562 1.8536981092
280 1 17.4727769727 5.1390105152 -3.5688018160
281 1 17.1182718461 6.9114033875 -1.7613018198
282 1 16.7639354613 8.6836999678 0.0461981688
283 1 16.4096624457 10.4560049707 1.8536981561
284 1 18.8907049213 7.2657787095 -3.5688017601
285 1 18.5363363489 9.0381277849 -1.7613017680
286 1 18.1819131610 10.8105330650 0.0461982194
287 1 17.8273728390 12.5830093517 1.8536982037
288 1 20.3086329224 9.3926112300 -3.5688017072
289 1 19.9541421646 11.1650457650 -1.7613017203
290 1 19.5996147528 12.9374903779 0.0461982676
291 1 19.2451192671 14.7098993911 1.8536982500
292 1 21.7264146937 11.5195192131 -3.5688016619
293 1 21.3719311377 13.2919299590 -1.7613016735
294 1 21.0174852841 15.0643153566 0.0461983157
295 1 20.6630679920 16.8366913892 1.8536983067
296 1 23.1442665471 13.6463667681 -3.5688016198
297 1 22.7898247031 15.4187571577 -1.7613016270
298 1 22.4353785749 17.1911562660 0.0461983598
299 1 24.5621381291 15.7732155187 -3.5688015821
300 1 24.2076733941 17.5456252264 -1.7613015942
301 1 25.9799735337 17.9000877436 -3.5688015525
302 1 1.9055233736 -18.2693289003 0.0461977415
303 1 1.5380222935 -16.5060332935 1.8536977288
304 1 3.6651559813 -17.9053798176 -1.7613022330
305 1 3.2925884464 -16.1243684092 0.0461977581
306 1 2.9163627199 -14.3482363736 1.8536977444
307 1 5.4232876938 -17.5453434411 -3.5688021935
308 1 5.0589997488 -15.7675016349 -1.7613022072
309 1 4.7004007979 -13.9983511447 0.0461977822
310 1 4.3563726407 -12.2356457347 1.8536977736
311 1 6.8339204735 -15.4172872108 -3.5688021592
312 1 6.4831544436 -13.6488215608 -1.7613021736
313 1 6.1348587583 -11.8810003326 0.0461978146
314 1 5.7828704107 -10.1080193790 1.8536977955
315 1 8.2590594329 -13.2956561723 -3.5688021214
316 1 7.9060875470 -11.5237305258 -1.7613021396
317 1 7.5491456730 -9.7492647484 0.0461978446
318 1 7.1902330671 -7.9737788793 1.8536978292
319 1 9.6757811962 -11.1671946755 -3.5688020912
320 1 9.3189503921 -9.3934569981 -1.7613021011
321 1 8.9630562924 -7.6207363574 0.0461978814
322 1 8.6101660759 -5.8496774640 1.8536978686
323 1 11.0912893043 -9.0393597885 -3.5688020451
324 1 10.7372253774 -7.2675960860 -1.7613020547
325 1 10.3843584515 -5.4962069461 0.0461979315
326 1 10.0310657273 -3.7240683157 1.8536979105
327 1 12.5106088852 -6.9136453458 -3.5688019927
328 1 12.1567994805 -5.1415203699 -1.7613020014
329 1 11.8021526702 -3.3687372114 0.0461979882
330 1 11.4466490085 -1.5955827900 1.8536979609
331 1 13.9286356232 -4.7866342608 -3.5688019271
332 1 13.5737072300 -3.0138825427 -1.7613019468
333 1 13.2187616896 -1.2412479181 0.0461980382
334 1 12.8643747594 0.5309492418 1.8536980196
335 1 15.3458531983 -2.6594176605 -3.5688018790
336 1 14.9913664226 -0.8870744980 -1.7613018926
337 1 14.6372138871 0.8850965752 0.0461980933
338 1 14.2831101818 2.6573273548 1.8536980799
339 1 16.7639354874 -0.5327786863 -3.5688018283
340 1 16.4096624985 1.2395263403 -1.7613018435
341 1 16.0552404345 3.0119619128 0.0461981453
342 1 15.7005787973 4.7845254161 1.8536981305
343 1 18.1819131886 1.5940544336 -3.5688017821
344 1 17.8273728928 3.3665307416 -1.7613017943
345 1 17.4727769727 5.1390105152 0.0461981840
346 1 17.1182718461 6.9114033875 1.8536981802
347 1 19.5996147892 3.7210117658 -3.5688017364
348 1 19.2451193266 5.4934208033 -1.7613017504
349 1 18.8907049213 7.2657787095 0.0461982399
350 1 18.5363363489 9.0381277849 1.8536982320
351 1 21.0174853255 5.8478367676 -3.5688016899
352 1 20.6630680520 7.6202128133 -1.7613016977
353 1 20.3086329224 9.3926112300 0.0461982928
354 1 19.9541421646 11.1650457650 1.8536982797
355 1 22.4353786392 7.9746776762 -3.5688016454
356 1 22.0809074506 9.7470944552 -1.7613016554
357 1 21.7264146937 11.5195192131 0.0461983381
358 1 21.3719311377 13.2919299590 1.8536983265
359 1 23.8531979330 10.1015610388 -3.5688016064
360 1 23.4987240916 11.8739699917 -1.7613016213
361 1 23.1442665471 13.6463667681 0.0461983802
362 1 22.7898247031 15.4187571577 1.8536983730
363 1 25.2710463859 12.2284163323 -3.5688015820
364 1 24.9165925887 14.0008140862 -1.7613015798
365 1 24.5621381291 15.7732155187 0.0461984179
366 1 24.2076733941 17.5456252264 1.8536984058
367 1 26.6889049763 14.3552704660 -3.5688015433
368 1 26.3344408755 16.1276783770 -1.7613015470
369 1 25.9799735337 17.9000877436 0.0461984475
370 1 28.1067450169 16.4821394227 -3.5688015240
371 1 27.7522843326 18.2545432034 -1.7613015341
372 1 3.6651559813 -17.9053798176 1.8536977670
373 1 5.4232876938 -17.5453434411 0.0461978065
374 1 5.0589997488 -15.7675016349 1.8536977928
375 1 7.1902329694 -17.1902575495 -1.7613021525
376 1 6.8339204735 -15.4172872108 0.0461978408
377 1 6.4831544436 -13.6488215608 1.8536978264
378 1 8.9630562008 -16.8372150325 -3.5688020994
379 1 8.6101659745 -15.0661561391 -1.7613021117
380 1 8.2590594329 -13.2956561723 0.0461978786
381 1 7.9060875470 -11.5237305258 1.8536978604
382 1 10.3843583579 -14.7126856268 -3.5688020478
383 1 10.0310656334 -12.9405469984 -1.7613020720
384 1 9.6757811962 -11.1671946755 0.0461979088
385 1 9.3189503921 -9.3934569981 1.8536978989
386 1 11.8021525743 -12.5852158965 -3.5688020025
387 1 11.4466489159 -10.8120614736 -1.7613020308
388 1 11.0912893043 -9.0393597885 0.0461979549
389 1 10.7372253774 -7.2675960860 1.8536979453
390 1 13.2187615951 -10.4577266060 -3.5688019593
391 1 12.8643746808 -8.6855294447 -1.7613019785
392 1 12.5106088852 -6.9136453458 0.0461980073
393 1 12.1567994805 -5.1415203699 1.8536979986
394 1 14.6372138092 -8.3313821225 -3.5688019051
395 1 14.2831101302 -6.5591513393 -1.7613019181
396 1 13.9286356232 -4.7866342608 0.0461980729
397 1 13.5737072300 -3.0138825427 1.8536980532
398 1 16.0552403816 -6.2045167943 -3.5688018518
399 1 15.7005787705 -4.4319532757 -1.7613018671
400 1 15.3458531983 -2.6594176605 0.0461981210
401 1 14.9913664226 -0.8870744980 1.8536981074
402 1 17.4727769311 -4.0774681815 -3.5688018115
403 1 17.1182718368 -2.3050752904 -1.7613018170
404 1 16.7639354874 -0.5327786863 0.0461981717
405 1 16.4096624985 1.2395263403 1.8536981565
406 1 18.8907048922 -1.9506999739 -3.5688017590
407 1 18.5363363499 -0.1783508740 -1.7613017675
408 1 18.1819131886 1.5940544336 0.0461982179
409 1 17.8273728928 3.3665307416 1.8536982057
410 1 20.3086328998 0.1761325715 -3.5688017104
411 1 19.9541421680 1.9485671320 -1.7613017233
412 1 19.5996147892 3.7210117658 0.0461982636
413 1 19.2451193266 5.4934208033 1.8536982496
414 1 21.7264146808 2.3030405824 -3.5688016708
415 1 21.3719311526 4.0754513482 -1.7613016787
416 1 21.0174853255 5.8478367676 0.0461983101
417 1 20.6630680520 7.6202128133 1.8536983023
418 1 23.1442665503 4.4298881568 -3.5688016284
419 1 22.7898247378 6.2022785574 -1.7613016339
420 1 22.4353786392 7.9746776762 0.0461983546
421 1 22.0809074506 9.7470944552 1.8536983446
422 1 24.5621381689 6.5567369022 -3.5688015880
423 1 24.2076734663 8.3291466170 -1.7613016021
424 1 23.8531979330 10.1015610388 0.0461983936
425 1 23.4987240916 11.8739699917 1.8536983787
426 1 25.9799736187 8.6836091135 -3.5688015620
427 1 25.6255069649 10.4560155198 -1.7613015731
428 1 25.2710463859 12.2284163323 0.0461984180
429 1 24.9165925887 14.0008140862 1.8536984202
430 1 27.3978251577 10.8104654333 -3.5688015510
431 1 27.0433658125 12.5828664222 -1.7613015471
432 1 26.6889049763 14.3552704660 0.0461984567
433 1 26.3344408755 16.1276783770 1.8536984530
434 1 28.8156760593 12.9373223495 -3.5688015114
435 1 28.4612088679 14.7097317453 -1.7613015170
436 1 28.1067450169 16.4821394227 0.0461984760
437 1 27.7522843326 18.2545432034 1.8536984659
438 1 30.2335121745 15.0641943217 -3.5688014848
439 1 29.8790580763 16.8365952817 -1.7613014914
440 1 31.6513843491 17.1910421732 -3.5688014533
441 1 7.1902329694 -17.1902575495 1.8536978475
442 1 8.9630562008 -16.8372150325 0.0461979006
443 1 8.6101659745 -15.0661561391 1.8536978883
444 1 11.0912892403 -18.2558384589 -3.5688020288
445 1 10.7372252937 -16.4840747625 -1.7613020357
446 1 10.3843583579 -14.7126856268 0.0461979522
447 1 10.0310656334 -12.9405469984 1.8536979280
448 1 12.5106088075 -16.1301240243 -3.5688019818
449 1 12.1567993891 -14.3579990565 -1.7613019885
450 1 11.8021525743 -12.5852158965 0.0461979975
451 1 11.4466489159 -10.8120614736 1.8536979692
452 1 13.9286355319 -14.0031129451 -3.5688019262
453 1 13.5737071318 -12.2303612277 -1.7613019441
454 1 13.2187615951 -10.4577266060 0.0461980407
455 1 12.8643746808 -8.6855294447 1.8536980215
456 1 15.3458530993 -11.8758963539 -3.5688018794
457 1 14.9913663315 -10.1035531927 -1.7613018933
458 1 14.6372138092 -8.3313821225 0.0461980949
459 1 14.2831101302 -6.5591513393 1.8536980819
460 1 16.7639353936 -9.7492573994 -3.5688018273
461 1 16.4096624235 -7.9769523737 -1.7613018428
462 1 16.0552403816 -6.2045167943 0.0461981482
463 1 15.7005787705 -4.4319532757 1.8536981329
464 1 18.1819131112 -7.6224242939 -3.5688017812
465 1 17.8273728280 -5.8499479721 -1.7613017925
466 1 17.4727769311 -4.0774681815 0.0461981885
467 1 17.1182718368 -2.3050752904 1.8536981830
468 1 19.5996147086 -5.4954669500 -3.5688017345
469 1 19.2451192667 -3.7230579010 -1.7613017507
470 1 18.8907048922 -1.9506999739 0.0461982410
471 1 18.5363363499 -0.1783508740 1.8536982325
472 1 21.0174852494 -3.3686419289 -3.5688016898
473 1 20.6630680027 -1.5962658676 -1.7613017004
474 1 20.3086328998 0.1761325715 0.0461982896
475 1 19.9541421680 1.9485671320 1.8536982767
476 1 22.4353785676 -1.2418009879 -3.5688016501
477 1 22.0809074078 0.5306158102 -1.7613016603
478 1 21.7264146808 2.3030405824 0.0461983292
479 1 21.3719311526 4.0754513482 1.8536983213
480 1 23.8531978741 0.8850824067 -3.5688016148
481 1 23.4987240668 2.6574913688 -1.7613016296
482 1 23.1442665503 4.4298881568 0.0461983716
483 1 22.7898247378 6.2022785574 1.8536983661
484 1 25.2710463596 3.0119377112 -3.5688015888
485 1 24.9165925960 4.7843354668 -1.7613015879
486 1 24.5621381689 6.5567369022 0.0461984120
487 1 24.2076734663 8.3291466170 1.8536983979
488 1 26.6889049981 5.1387918369 -3.5688015511
489 1 26.3344409302 6.9111997458 -1.7613015561
490 1 25.9799736187 8.6836091135 0.0461984380
491 1 25.6255069649 10.4560155198 1.8536984269
492 1 28.1067450888 7.2656607827 -3.5688015350
493 1 27.7522844416 9.0380645571 -1.7613015456
494 1 27.3978251577 10.8104654333 0.0461984490
495 1 27.0433658125 12.5828664222 1.8536984529
496 1 29.5246040613 9.3925144147 -3.5688015148
497 1 29.1701429619 11.1649156014 -1.7613015141
498 1 28.8156760593 12.9373223495 0.0461984886
499 1 28.4612088679 14.7097317453 1.8536984830
500 1 30.9424510789 11.5193708139 -3.5688014674
501 1 30.5879760149 13.2917851896 -1.7613014758
502 1 30.2335121745 15.0641943217 0.0461985152
503 1 29.8790580763 16.8365952817 1.8536985086
504 1 32.3602719331 13.6462537568 -3.5688014344
505 1 32.0058268789 15.4186517626 -1.7613014386
506 1 31.6513843491 17.1910421732 0.0461985467
507 1 33.7781671352 15.7730925855 -3.5688013890
508 1 33.4237182762 17.5454795270 -1.7613014050
509 1 35.1960307193 17.8999217590 -3.5688013465
510 1 11.0912892403 -18.2558384589 0.0461979712
511 1 10.7372252937 -16.4840747625 1.8536979643
512 1 12.8643746272 -17.9020081131 -1.7613019704
513 1 12.5106088075 -16.1301240243 0.0461980182
514 1 12.1567993891 -14.3579990565 1.8536980115
515 1 14.6372137653 -17.5478607906 -3.5688019045
516 1 14.2831100580 -15.7756300188 -1.7613019183
517 1 13.9286355319 -14.0031129451 0.0461980738
518 1 13.5737071318 -12.2303612277 1.8536980559
519 1 16.0552403166 -15.4209954737 -3.5688018523
520 1 15.7005786798 -13.6484319646 -1.7613018700
521 1 15.3458530993 -11.8758963539 0.0461981206
522 1 14.9913663315 -10.1035531927 1.8536981067
523 1 17.4727768452 -13.2939468747 -3.5688018098
524 1 17.1182717387 -11.5215539964 -1.7613018169
525 1 16.7639353936 -9.7492573994 0.0461981727
526 1 16.4096624235 -7.9769523737 1.8536981572
527 1 18.8907048030 -11.1671786850 -3.5688017570
528 1 18.5363362619 -9.3948296009 -1.7613017666
529 1 18.1819131112 -7.6224242939 0.0461982188
530 1 17.8273728280 -5.8499479721 1.8536982075
531 1 20.3086328137 -9.0403461567 -3.5688017079
532 1 19.9541420787 -7.2679115968 -1.7613017232
533 1 19.5996147086 -5.4954669500 0.0461982655
534 1 19.2451192667 -3.7230579010 1.8536982493
535 1 21.7264145800 -6.9134381368 -3.5688016681
536 1 21.3719310585 -5.1410273657 -1.7613016809
537 1 21.0174852494 -3.3686419289 0.0461983102
538 1 20.6630680027 -1.5962658676 1.8536982996
539 1 23.1442664385 -4.7865905393 -3.5688016277
540 1 22.7898246390 -3.0142001262 -1.7613016366
541 1 22.4353785676 -1.2418009879 0.0461983499
542 1 22.0809074078 0.5306158102 1.8536983397
543 1 24.5621380500 -2.6597417583 -3.5688015897
544 1 24.2076733738 -0.8873320301 -1.7613016085
545 1 23.8531978741 0.8850824067 0.0461983852
546 1 23.4987240668 2.6574913688 1.8536983704
547 1 25.9799735142 -0.5328695203 -3.5688015667
548 1 25.6255068985 1.2395368966 -1.7613015804
549 1 25.2710463596 3.0119377112 0.0461984112
550 1 24.9165925960 4.7843354668 1.8536984121
551 1 27.3978250947 1.5939868086 -3.5688015561
552 1 27.0433657952 3.3663877945 -1.7613015535
553 1 26.6889049981 5.1387918369 0.0461984489
554 1 26.3344409302 6.9111997458 1.8536984439
555 1 28.8156760569 3.7208437114 -3.5688015212
556 1 28.4612089055 5.4932531057 -1.7613015304
557 1 28.1067450888 7.2656607827 0.0461984650
558 1 27.7522844416 9.0380645571 1.8536984544
559 1 30.2335122274 5.8477156735 -3.5688014952
560 1 29.8790581683 7.6201166323 -1.7613015016
561 1 29.5246040613 9.3925144147 0.0461984852
562 1 29.1701429619 11.1649156014 1.8536984859
563 1 31.6513844642 7.9745635128 -3.5688014563
564 1 31.2969255769 9.7469611403 -1.7613014649
565 1 30.9424510789 11.5193708139 0.0461985326
566 1 30.5879760149 13.2917851896 1.8536985242
567 1 33.0692330610 10.1014132345 -3.5688014148
568 1 32.7147410938 11.8738381495 -1.7613014217
569 1 32.3602719331 13.6462537568 0.0461985656
570 1 32.0058268789 15.4186517626 1.8536985614
571 1 34.4870174263 12.2283208194 -3.5688013708
572 1 34.1325852834 14.0007169273 -1.7613013810
573 1 33.7781671352 15.7730925855 0.0461986110
574 1 33.4237182762 17.5454795270 1.8536985950
575 1 35.9049508450 14.3551483918 -3.5688013216
576 1 35.5505308254 16.1275093569 -1.7613013357
577 1 35.1960307193 17.8999217590 0.0461986535
578 1 37.3228650176 16.4819247552 -3.5688012822
579 1 36.9682686510 18.2544073737 -1.7613012844
580 1 12.8643746272 -17.9020081131 1.8536980296
581 1 14.6372137653 -17.5478607906 0.0461980955
582 1 14.2831100580 -15.7756300188 1.8536980817
583 1 16.4096623913 -17.1934310368 -1.7613018462
584 1 16.0552403166 -15.4209954737 0.0461981477
585 1 15.7005786798 -13.6484319646 1.8536981300
586 1 18.1819130924 -16.8389029505 -3.5688017790
587 1 17.8273727712 -15.0664266484 -1.7613017924
588 1 17.4727768452 -13.2939468747 0.0461981902
589 1 17.1182717387 -11.5215539964 1.8536981831
590 1 19.5996146647 -14.7119456246 -3.5688017308
591 1 19.2451191948 -12.9395365951 -1.7613017478
592 1 18.8907048030 -11.1671786850 0.0461982430
593 1 18.5363362619 -9.3948296009 1.8536982334
594 1 21.0174851888 -12.5851206259 -3.5688016845
595 1 20.6630679231 -10.8127445814 -1.7613016963
596 1 20.3086328137 -9.0403461567 0.0461982921
597 1 19.9541420787 -7.2679115968 1.8536982768
598 1 22.4353784915 -10.4582796987 -3.5688016444
599 1 22.0809073166 -8.6858629083 -1.7613016556
600 1 21.7264145800 -6.9134381368 0.0461983319
601 1 21.3719310585 -5.1410273657 1.8536983191
602 1 23.8531977754 -8.3313962980 -3.5688016066
603 1 23.4987239553 -6.5589873310 -1.7613016251
604 1 23.1442664385 -4.7865905393 0.0461983723
605 1 22.7898246390 -3.0142001262 1.8536983634
606 1 25.2710462310 -6.2045409655 -3.5688015805
607 1 24.9165924645 -4.4321432036 -1.7613015843
608 1 24.5621380500 -2.6597417583 0.0461984103
609 1 24.2076733738 -0.8873320301 1.8536983915
610 1 26.6889048463 -4.0776868071 -3.5688015475
611 1 26.3344407952 -2.3052788912 -1.7613015578
612 1 25.9799735142 -0.5328695203 0.0461984333
613 1 25.6255068985 1.2395368966 1.8536984196
614 1 28.1067449494 -1.9508178415 -3.5688015353
615 1 27.7522843357 -0.1784140679 -1.7613015483
616 1 27.3978250947 1.5939868086 0.0461984439
617 1 27.0433657952 3.3663877945 1.8536984465
618 1 29.5246039662 0.1760357892 -3.5688015197
619 1 29.1701429140 1.9484369687 -1.7613015208
620 1 28.8156760569 3.7208437114 0.0461984788
621 1 28.4612089055 5.4932531057 1.8536984696
622 1 30.9424510520 2.3028921702 -3.5688014747
623 1 30.5879760313 4.0753065437 -1.7613014870
624 1 30.2335122274 5.8477156735 0.0461985048
625 1 29.8790581683 7.6201166323 1.8536984984
626 1 32.3602719624 4.4297750981 -3.5688014413
627 1 32.0058269517 6.2021731049 -1.7613014460
628 1 31.6513844642 7.9745635128 0.0461985437
629 1 31.2969255769 9.7469611403 1.8536985351
630 1 33.7781672257 6.5566139046 -3.5688013889
631 1 33.4237184126 8.3290008494 -1.7613014051
632 1 33.0692330610 10.1014132345 0.0461985852
633 1 32.7147410938 11.8738381495 1.8536985783
634 1 35.1960308693 8.6834430562 -3.5688013416
635 1 34.8415040160 10.4558883205 -1.7613013561
636 1 34.4870174263 12.2283208194 0.0461986292