ITEM: TIMESTEP
0
ITEM: NUMBER OF ATOMS
2504
ITEM: BOX BOUNDS xy xz yz mm pp pp
-5.5498871899999997e+01 5.5498871899999997e+01 0.0000000000000000e+00
-1.8432957300000002e+01 1.8432957300000002e+01 0.0000000000000000e+00
-3.6150000000000002e+00 3.6150000000000002e+00 0.0000000000000000e+00
ITEM: ATOMS id type x y z c_eng c_csym
1 1 0.636731 16.7265 -3.61026 -3.44393 3.67255
2 1 0.286345 -18.3286 -1.80276 -3.28723 9.1694
3 1 1.01361 13.0198 -3.61026 -3.48541 0.416169
4 1 0.882318 14.769 -1.80276 -3.50373 0.592571
5 1 0.636731 16.7265 0.00473551 -3.44393 3.67255
6 1 0.286345 -18.3286 1.81224 -3.28723 9.1694
7 1 2.60242 15.1647 -3.61026 -3.54203 0.121947
8 1 2.29476 16.9944 -1.80276 -3.52306 0.0754493
9 1 3.98801 17.3659 -3.61026 -3.5461 0.0284285
10 1 0.595661 7.46276 -3.61026 -3.48329 2.55001
11 1 0.244241 9.25159 -1.80276 -3.30355 6.87486
12 1 1.86928 9.64239 -3.61026 -3.47402 0.494924
13 1 1.37479 11.3968 -1.80276 -3.45969 0.551873
14 1 1.01361 13.0198 0.00473579 -3.48541 0.416169
15 1 0.882318 14.769 1.81224 -3.50373 0.592571
16 1 3.24772 11.7118 -3.61026 -3.51998 0.0554271
17 1 2.93659 13.412 -1.80276 -3.51047 0.0839614
18 1 2.60242 15.1647 0.00473591 -3.54203 0.121947
19 1 2.29476 16.9944 1.81224 -3.52306 0.0754493
20 1 4.72515 13.7928 -3.61026 -3.53253 0.0158384
21 1 4.36464 15.5598 -1.80276 -3.53823 0.0103796
22 1 3.98801 17.3659 0.00473605 -3.5461 0.0284285
23 1 6.11926 15.9391 -3.61026 -3.54073 0.00230385
24 1 5.74715 17.7188 -1.80276 -3.54466 0.0109382
25 1 7.53236 18.0648 -3.61026 -3.54101 0.00181542
26 1 1.05337 3.78692 -3.61026 -3.49923 0.337499
27 1 0.874112 5.54427 -1.80276 -3.52077 0.357611
28 1 0.595661 7.46276 0.00473551 -3.48329 2.55
29 1 0.244241 9.25159 1.81224 -3.30373 6.87487
30 1 2.60117 5.94209 -3.61026 -3.54233 0.0838493
31 1 2.27779 7.75902 -1.80276 -3.52401 0.0548827
32 1 1.86928 9.64239 0.00473595 -3.47402 0.494924
33 1 1.37479 11.3968 1.81224 -3.45969 0.551873
34 1 3.97876 8.14109 -3.61026 -3.54576 0.0222406
35 1 3.59852 9.94657 -1.80276 -3.54339 0.0500261
36 1 3.24772 11.7118 0.00473609 -3.51998 0.0554271
37 1 2.93659 13.412 1.81224 -3.51047 0.0839614
38 1 5.38583 10.2714 -3.61026 -3.5429 0.00581539
39 1 5.06125 12.0313 -1.80276 -3.5346 0.00898193
40 1 4.72515 13.7928 0.0047364 -3.53253 0.0158384
41 1 4.36464 15.5598 1.81224 -3.53823 0.0103796
42 1 6.83948 12.3817 -3.61026 -3.53846 0.0032705
43 1 6.48871 14.1575 -1.80276 -3.53823 0.00197192
44 1 6.11926 15.9391 0.00473645 -3.54073 0.00230385
45 1 5.74715 17.7188 1.81224 -3.54466 0.0109382
46 1 8.2502 14.5182 -3.61026 -3.54079 0.00038306
47 1 7.88768 16.2952 -1.80276 -3.54135 0.00204447
48 1 7.53236 18.0648 0.00473659 -3.54101 0.00181542
49 1 9.66591 16.6446 -3.61026 -3.54073 0.000514853
50 1 9.31865 18.4115 -1.80276 -3.5396 0.000204705
51 1 0.601259 -1.75982 -3.61026 -3.48772 2.43188
52 1 0.252864 0.023186 -1.80276 -3.31067 6.70702
53 1 1.90385 0.401043 -3.61026 -3.48421 0.436908
54 1 1.42765 2.15124 -1.80276 -3.46757 0.469929
55 1 1.05337 3.78692 0.00473579 -3.49923 0.337491
56 1 0.874112 5.54427 1.81224 -3.52057 0.357611
57 1 3.28013 2.48241 -3.61026 -3.5228 0.0438052
58 1 2.95072 4.19157 -1.80276 -3.51716 0.0587313
59 1 2.60117 5.94209 0.00473591 -3.54233 0.0838493
60 1 2.27779 7.75902 1.81224 -3.52404 0.0548827
61 1 4.73375 4.57632 -3.61026 -3.53345 0.011924
62 1 4.3644 6.34186 -1.80276 -3.53816 0.00736737
63 1 3.97876 8.14109 0.00473605 -3.54576 0.0222406
64 1 3.59852 9.94657 1.81224 -3.54339 0.0500261
65 1 6.11918 6.72486 -3.61026 -3.54065 0.00232559
66 1 5.74043 8.50131 -1.80276 -3.54416 0.00946156
67 1 5.38583 10.2714 0.00473645 -3.5429 0.00581539
68 1 5.06125 12.0313 1.81224 -3.5346 0.00898193
69 1 7.52553 8.85279 -3.61026 -3.54076 0.00153524
70 1 7.17953 10.6145 -1.80276 -3.53922 0.00118002
71 1 6.83948 12.3817 0.00473659 -3.53846 0.0032705
72 1 6.48871 14.1575 1.81224 -3.53823 0.00197192
73 1 8.96101 10.9698 -3.61026 -3.53912 0.000718839
74 1 8.60899 12.7408 -1.80276 -3.5398 0.000585645
75 1 8.2502 14.5182 0.00473665 -3.54079 0.00038306
76 1 7.88768 16.2952 1.81224 -3.54135 0.00204447
77 1 10.3785 13.0999 -3.61026 -3.5405 7.52928e-05
78 1 10.0204 14.8734 -1.80276 -3.54107 0.000467808
79 1 9.66591 16.6446 0.00473679 -3.54073 0.000514853
80 1 9.31865 18.4115 1.81224 -3.5396 0.000204705
81 1 11.7967 15.2262 -3.61026 -3.54059 0.000150974
82 1 11.4461 16.9949 -1.80276 -3.54012 5.4358e-05
83 1 13.224 17.3478 -3.61026 -3.53997 5.36823e-05
84 1 1.06826 -5.41754 -3.61026 -3.49503 0.356033
85 1 0.881094 -3.67187 -1.80276 -3.52364 0.356905
86 1 0.601259 -1.75982 0.00473551 -3.48772 2.43187
87 1 0.252864 0.023186 1.81224 -3.31082 6.70703
88 1 2.61804 -3.26748 -3.61026 -3.54369 0.0792772
89 1 2.2953 -1.46404 -1.80276 -3.52854 0.0493
90 1 1.90385 0.401043 0.00473595 -3.48421 0.436904
91 1 1.42765 2.15124 1.81224 -3.46782 0.469929
92 1 4.01038 -1.08151 -3.61026 -3.54631 0.0157445
93 1 3.63574 0.715388 -1.80276 -3.54296 0.0305211
94 1 3.28013 2.48241 0.00473609 -3.5228 0.0438052
95 1 2.95072 4.19157 1.81224 -3.51719 0.0587313
96 1 5.41592 1.05162 -3.61026 -3.54278 0.00324979
97 1 5.08077 2.81338 -1.80276 -3.53577 0.00635671
98 1 4.73375 4.57632 0.0047364 -3.53345 0.011924
99 1 4.3644 6.34186 1.81224 -3.53816 0.00736737
100 1 6.8537 3.16971 -3.61026 -3.5389 0.00225973
101 1 6.49513 4.94503 -1.80276 -3.53851 0.00156572
102 1 6.11918 6.72486 0.00473645 -3.54065 0.00232559
103 1 5.74043 8.50131 1.81224 -3.54416 0.00946156
104 1 8.25521 5.30891 -3.61026 -3.54078 0.000441016
105 1 7.88695 7.08475 -1.80276 -3.54125 0.00202628
106 1 7.52553 8.85279 0.00473659 -3.54076 0.00153524
107 1 7.17953 10.6145 1.81224 -3.53922 0.00118002
108 1 9.66384 7.43728 -3.61026 -3.54063 0.000492692
109 1 9.31054 9.2038 -1.80276 -3.53952 0.000164683
110 1 8.96101 10.9698 0.00473674 -3.53912 0.000718839
111 1 8.60899 12.7408 1.81224 -3.5398 0.000585645
112 1 11.0892 9.55789 -3.61026 -3.53962 0.000124721
113 1 10.7354 11.3275 -1.80276 -3.53976 0.000140875
114 1 10.3785 13.0999 0.00473685 -3.5405 7.52928e-05
115 1 10.0204 14.8734 1.81224 -3.54107 0.000467808
116 1 12.5082 11.6844 -3.61026 -3.54023 1.16641e-05
117 1 12.1516 13.4558 -1.80276 -3.54057 0.000101909
118 1 11.7967 15.2262 0.00473722 -3.54059 0.000150974
119 1 11.4461 16.9949 1.81224 -3.54012 5.4358e-05
120 1 13.9271 13.8097 -3.61026 -3.54038 4.28672e-05
121 1 13.5745 15.5789 -1.80276 -3.54021 1.86598e-05
122 1 13.224 17.3478 0.00473743 -3.53997 5.36823e-05
123 1 15.351 15.9326 -3.61026 -3.54009 1.46645e-05
124 1 14.9994 17.7024 -1.80276 -3.54004 3.81077e-05
125 1 16.7733 18.0577 -3.61026 -3.54014 1.47519e-05
126 1 0.659063 -10.9304 -3.61026 -3.4512 3.46133
127 1 0.325897 -9.13498 -1.80276 -3.29498 8.83995
128 1 1.95214 -8.779 -3.61026 -3.47142 0.563593
129 1 1.46481 -7.0279 -1.80276 -3.44981 0.587348
130 1 1.06826 -5.41754 0.00473579 -3.49503 0.356024
131 1 0.881094 -3.67187 1.81224 -3.52345 0.356905
132 1 3.31298 -6.70756 -3.61026 -3.52143 0.0657356
133 1 2.97597 -5.00285 -1.80276 -3.51497 0.0609807
134 1 2.61804 -3.26748 0.00473591 -3.54369 0.0792772
135 1 2.2953 -1.46404 1.81224 -3.52858 0.0493
136 1 4.76173 -4.62496 -3.61026 -3.5329 0.0143195
137 1 4.39215 -2.86692 -1.80276 -3.53796 0.00567321
138 1 4.01038 -1.08151 0.00473625 -3.54631 0.0157445
139 1 3.63574 0.715388 1.81224 -3.54296 0.0305211
140 1 6.15158 -2.48788 -3.61026 -3.53983 0.00178965
141 1 5.77456 -0.716078 -1.80276 -3.54333 0.00486298
142 1 5.41592 1.05162 0.00473645 -3.54278 0.00324979
143 1 5.08077 2.81338 1.81224 -3.53577 0.00635671
144 1 7.5546 -0.361127 -3.61026 -3.54042 0.000821757
145 1 7.20236 1.40197 -1.80276 -3.53945 0.000729574
146 1 6.8537 3.16971 0.00473659 -3.5389 0.00225973
147 1 6.49513 4.94503 1.81224 -3.53851 0.00156572
148 1 8.97821 1.7599 -3.61026 -3.53922 0.000517977
149 1 8.62002 3.53197 -1.80276 -3.53987 0.000366795
150 1 8.25521 5.30891 0.00473665 -3.54078 0.000441016
151 1 7.88695 7.08475 1.81224 -3.54125 0.00202628
152 1 10.3866 3.89226 -3.61026 -3.54042 9.44734e-05
153 1 10.0237 5.66628 -1.80276 -3.54097 0.000483688
154 1 9.66384 7.43728 0.00473679 -3.54063 0.000492692
155 1 9.31054 9.2038 1.81224 -3.53952 0.000164683
156 1 11.7977 6.02016 -3.61026 -3.5405 0.000163574
157 1 11.4422 7.78954 -1.80276 -3.54007 4.35228e-05
158 1 11.0892 9.55789 0.00473714 -3.53962 0.000124721
159 1 10.7354 11.3275 1.81224 -3.53976 0.000140875
160 1 13.2184 8.14314 -3.61026 -3.53996 2.02581e-05
161 1 12.8639 9.91329 -1.80276 -3.53996 3.07389e-05
162 1 12.5082 11.6844 0.00473731 -3.54023 1.16641e-05
163 1 12.1516 13.4558 1.81224 -3.54057 0.000101909
164 1 14.6375 10.2684 -3.61026 -3.5402 3.72916e-06
165 1 14.2819 12.0394 -1.80276 -3.54036 2.43922e-05
166 1 13.9271 13.8097 0.00473748 -3.54038 4.28672e-05
167 1 13.5745 15.5789 1.81224 -3.54021 1.86598e-05
168 1 16.0567 12.3932 -3.61026 -3.5403 1.38616e-05
169 1 15.7032 14.1632 -1.80276 -3.54021 7.59447e-06
170 1 15.351 15.9326 0.00473775 -3.54009 1.46645e-05
171 1 14.9994 17.7024 1.81224 -3.54004 3.81077e-05
172 1 17.4786 14.5169 -3.61026 -3.54015 5.44058e-06
173 1 17.126 16.2871 -1.80276 -3.54011 1.39169e-05
174 1 16.7733 18.0577 0.00473801 -3.54014 1.47519e-05
175 1 18.8999 16.6419 -3.61026 -3.54015 7.74995e-06
176 1 18.5464 18.413 -1.80276 -3.54019 4.94145e-06
177 1 1.02182 -14.6136 -3.61026 -3.47928 0.486711
178 1 0.897384 -12.8693 -1.80276 -3.51023 0.554149
179 1 0.659063 -10.9304 0.00473551 -3.4512 3.46133
180 1 0.325897 -9.13498 1.81224 -3.29496 8.83995
181 1 2.62894 -12.4836 -3.61026 -3.54304 0.123531
182 1 2.33156 -10.6662 -1.80276 -3.52684 0.0732822
183 1 1.95214 -8.779 0.00473595 -3.47142 0.563589
184 1 1.46481 -7.0279 1.81224 -3.45007 0.587348
185 1 4.03224 -10.2956 -3.61026 -3.54662 0.0215906
186 1 3.66654 -8.48459 -1.80276 -3.54325 0.0357097
187 1 3.31298 -6.70756 0.00473609 -3.52143 0.0657356
188 1 2.97597 -5.00285 1.81224 -3.515 0.0609807
189 1 5.43689 -8.15995 -3.61026 -3.54385 0.00430176
190 1 5.10684 -6.39006 -1.80276 -3.53636 0.00681647
191 1 4.76173 -4.62496 0.0047364 -3.5329 0.0143195
192 1 4.39215 -2.86692 1.81224 -3.53796 0.00567321
193 1 6.87561 -6.04388 -3.61026 -3.53929 0.00197569
194 1 6.52279 -4.26581 -1.80276 -3.53837 0.00204448
195 1 6.15158 -2.48788 0.00473645 -3.53983 0.00178965
196 1 5.77456 -0.716078 1.81224 -3.54333 0.00486298
197 1 8.28092 -3.90857 -3.61026 -3.54062 0.000246783
198 1 7.91674 -2.1307 -1.80276 -3.54078 0.00119777
199 1 7.5546 -0.361127 0.00473659 -3.54042 0.000821757
200 1 7.20236 1.40197 1.81224 -3.53945 0.000729574
201 1 9.68766 -1.77939 -3.61026 -3.54054 0.000237691
202 1 9.33263 -0.00889121 -1.80276 -3.53956 0.000175018
203 1 8.97821 1.7599 0.00473674 -3.53922 0.000517977
204 1 8.62002 3.53197 1.81224 -3.53987 0.000366795
205 1 11.105 0.345119 -3.61026 -3.53972 0.000111315
206 1 10.7478 2.11813 -1.80276 -3.53978 0.00011429
207 1 10.3866 3.89226 0.00473706 -3.54042 9.44734e-05
208 1 10.0237 5.66628 1.81224 -3.54097 0.000483688
209 1 12.5163 2.47454 -3.61026 -3.54023 3.24211e-05
210 1 12.1565 4.24835 -1.80276 -3.5405 0.00013561
211 1 11.7977 6.02016 0.00473722 -3.5405 0.000163574
212 1 11.4422 7.78954 1.81224 -3.54007 4.35228e-05
213 1 13.929 4.60195 -3.61026 -3.54035 6.27202e-05
214 1 13.573 6.37313 -1.80276 -3.54017 2.52759e-05
215 1 13.2184 8.14314 0.00473743 -3.53996 2.02581e-05
216 1 12.8639 9.91329 1.81224 -3.53996 3.07389e-05
217 1 15.3474 6.72629 -3.61026 -3.5401 6.11849e-06
218 1 14.9927 8.49729 -1.80276 -3.54007 7.14669e-06
219 1 14.6375 10.2684 0.00473763 -3.5402 3.72916e-06
220 1 14.2819 12.0394 1.81224 -3.54036 2.43922e-05
221 1 16.7662 8.85125 -3.61026 -3.54019 2.51328e-06
222 1 16.4113 10.6225 -1.80276 -3.54027 7.90084e-06
223 1 16.0567 12.3932 0.00473784 -3.5403 1.38616e-05
224 1 15.7032 14.1632 1.81224 -3.54021 7.59447e-06
225 1 18.1854 10.9761 -3.61026 -3.54025 5.4247e-06
226 1 17.8317 12.7467 -1.80276 -3.54022 3.96534e-06
227 1 17.4786 14.5169 0.00473812 -3.54015 5.44058e-06
228 1 17.126 16.2871 1.81224 -3.54011 1.39169e-05
229 1 19.6061 13.1004 -3.61026 -3.54018 2.68442e-06
230 1 19.253 14.8711 -1.80276 -3.54015 6.01985e-06
231 1 18.8999 16.6419 0.00473843 -3.54015 7.74995e-06
232 1 18.5464 18.413 1.81224 -3.54019 4.94145e-06
233 1 21.0266 15.2254 -3.61026 -3.54017 4.28953e-06
234 1 20.673 16.9968 -1.80276 -3.54019 3.7939e-06
235 1 22.4458 17.3516 -3.61026 -3.5402 2.12935e-06
236 1 1.89873 -17.9686 -3.61026 -3.45771 0.674676
237 1 1.39216 -16.2121 -1.80276 -3.43295 0.729476
238 1 1.02182 -14.6136 0.00473579 -3.47928 0.486711
239 1 0.897384 -12.8693 1.81224 -3.51023 0.554149
240 1 3.27127 -15.9133 -3.61026 -3.51759 0.076365
241 1 2.96054 -14.2204 -1.80276 -3.50844 0.0870082
242 1 2.62894 -12.4836 0.00473591 -3.54304 0.123531
243 1 2.33156 -10.6662 1.81224 -3.52685 0.0732822
244 1 4.75597 -13.8496 -3.61026 -3.53165 0.0188463
245 1 4.40172 -12.0909 -1.80276 -3.5377 0.0105967
246 1 4.03224 -10.2956 0.00473625 -3.54662 0.0215906
247 1 3.66654 -8.48459 1.81224 -3.54326 0.0357097
248 1 6.15869 -11.714 -3.61026 -3.53996 0.00117506
249 1 5.78887 -9.93645 -1.80276 -3.54409 0.00557546
250 1 5.43689 -8.15995 0.00473645 -3.54385 0.00430176
251 1 5.10684 -6.39006 1.81224 -3.53636 0.00681647
252 1 7.56515 -9.58485 -3.61026 -3.54082 0.000746345
253 1 7.21836 -7.81679 -1.80276 -3.54002 0.000772718
254 1 6.87561 -6.04388 0.00473659 -3.53929 0.00197569
255 1 6.52279 -4.26581 1.81224 -3.53837 0.00204448
256 1 8.99205 -7.46331 -3.61026 -3.53946 0.000457875
257 1 8.63967 -5.68822 -1.80276 -3.54002 0.000420122
258 1 8.28092 -3.90857 0.00473665 -3.54062 0.000246783
259 1 7.91674 -2.1307 1.81224 -3.54078 0.00119777
260 1 10.4042 -5.33129 -3.61026 -3.54042 4.30991e-05
261 1 10.0455 -3.55425 -1.80276 -3.54088 0.000191029
262 1 9.68766 -1.77939 0.00473679 -3.54054 0.000237691
263 1 9.33263 -0.00889121 1.81224 -3.53956 0.000175018
264 1 11.8149 -3.20112 -3.61026 -3.5405 4.88003e-05
265 1 11.4597 -1.42755 -1.80276 -3.54015 1.6471e-05
266 1 11.105 0.345119 0.00473714 -3.53972 0.000111315
267 1 10.7478 2.11813 1.81224 -3.53978 0.00011429
268 1 13.2306 -1.07399 -3.61026 -3.54006 1.39111e-05
269 1 12.8746 0.7001 -1.80276 -3.54004 2.42674e-05
270 1 12.5163 2.47454 0.00473731 -3.54023 3.24211e-05
271 1 12.1565 4.24835 1.81224 -3.5405 0.00013561
272 1 14.6439 1.05483 -3.61026 -3.54024 7.9868e-06
273 1 14.2864 2.829 -1.80276 -3.54036 4.1277e-05
274 1 13.929 4.60195 0.00473748 -3.54035 6.27202e-05
275 1 13.573 6.37313 1.81224 -3.54017 2.52759e-05
276 1 16.058 3.18237 -3.61026 -3.54032 2.31201e-05
277 1 15.7023 4.95483 -1.80276 -3.54022 1.43398e-05
278 1 15.3474 6.72629 0.00473775 -3.5401 6.11849e-06
279 1 14.9927 8.49729 1.81224 -3.54007 7.14669e-06
280 1 17.4755 5.3078 -3.61026 -3.54018 2.77029e-06
281 1 17.121 7.07967 -1.80276 -3.54015 2.17988e-06
282 1 16.7662 8.85125 0.00473801 -3.54019 2.51328e-06
283 1 16.4113 10.6225 1.81224 -3.54027 7.90084e-06
284 1 18.8941 7.43307 -3.61026 -3.5402 1.24849e-06
285 1 18.5397 9.20482 -1.80276 -3.54024 3.28695e-06
286 1 18.1854 10.9761 0.00473829 -3.54025 5.4247e-06
287 1 17.8317 12.7467 1.81224 -3.54022 3.96534e-06
288 1 20.3132 9.55815 -3.61026 -3.54024 2.14419e-06
289 1 19.9595 11.3295 -1.80276 -3.54022 2.03949e-06
290 1 19.6061 13.1004 0.00473877 -3.54018 2.68442e-06
291 1 19.253 14.8711 1.81224 -3.54015 6.01985e-06
292 1 21.7333 11.683 -3.61026 -3.5402 1.26e-06
293 1 21.38 13.4542 -1.80276 -3.54018 2.85191e-06
294 1 21.0266 15.2254 0.00473906 -3.54017 4.28953e-06
295 1 20.673 16.9968 1.81224 -3.54019 3.7939e-06
296 1 23.1532 13.8083 -3.61026 -3.54019 2.30101e-06
297 1 22.7996 15.5799 -1.80276 -3.54019 2.59312e-06
298 1 22.4458 17.3516 0.00473929 -3.5402 2.12935e-06
299 1 24.5722 15.9345 -3.61026 -3.5402 1.58594e-06
300 1 24.2182 17.7065 -1.80276 -3.5402 1.38583e-06
301 1 25.9904 18.0613 -3.61026 -3.54021 9.21508e-07
302 1 1.89873 -17.9686 0.00473595 -3.45771 0.674676
303 1 1.39216 -16.2121 1.81224 -3.43295 0.729476
304 1 3.61705 -17.685 -1.80276 -3.5434 0.0574054
305 1 3.27127 -15.9133 0.00473609 -3.51759 0.076365
306 1 2.96054 -14.2204 1.81224 -3.50844 0.0870082
307 1 5.40017 -17.3725 -3.61026 -3.54369 0.00744786
308 1 5.0841 -15.6093 -1.80276 -3.5349 0.0095097
309 1 4.75597 -13.8496 0.0047364 -3.53165 0.0188463
310 1 4.40172 -12.0909 1.81224 -3.5377 0.0105967
311 1 6.86269 -15.2694 -3.61026 -3.53862 0.00374729
312 1 6.52107 -13.4936 -1.80276 -3.53789 0.0031059
313 1 6.15869 -11.714 0.00473645 -3.53996 0.00117506
314 1 5.78887 -9.93645 1.81224 -3.54409 0.00557546
315 1 8.28053 -13.1372 -3.61026 -3.54051 0.000222717
316 1 7.92215 -11.3579 -1.80276 -3.54091 0.000829524
317 1 7.56515 -9.58485 0.00473659 -3.54082 0.000746345
318 1 7.21836 -7.81679 1.81224 -3.54002 0.000772718
319 1 9.69231 -11.0072 -3.61026 -3.54066 0.000169465
320 1 9.34155 -9.23478 -1.80276 -3.53974 8.50846e-05
321 1 8.99205 -7.46331 0.00473674 -3.53946 0.000457875
322 1 8.63967 -5.68822 1.81224 -3.54002 0.000420122
323 1 11.1134 -8.88203 -3.61026 -3.5398 9.71955e-05
324 1 10.7606 -7.10756 -1.80276 -3.53984 0.000120234
325 1 10.4042 -5.33129 0.00473706 -3.54042 4.30991e-05
326 1 10.0455 -3.55425 1.81224 -3.54088 0.000191029
327 1 12.528 -6.75193 -3.61026 -3.54021 1.3242e-05
328 1 12.1715 -4.97614 -1.80276 -3.54046 3.42665e-05
329 1 11.8149 -3.20112 0.00473722 -3.5405 4.88003e-05
330 1 11.4597 -1.42755 1.81224 -3.54015 1.6471e-05
331 1 13.9409 -4.62205 -3.61026 -3.54034 1.22058e-05
332 1 13.5856 -2.84782 -1.80276 -3.54022 2.21268e-06
333 1 13.2306 -1.07399 0.00473743 -3.54006 1.39111e-05
334 1 12.8746 0.7001 1.81224 -3.54004 2.42674e-05
335 1 15.3561 -2.49386 -3.61026 -3.54015 1.54265e-06
336 1 15.0005 -0.71962 -1.80276 -3.54014 3.83082e-06
337 1 14.6439 1.05483 0.00473763 -3.54024 7.9868e-06
338 1 14.2864 2.829 1.81224 -3.54036 4.1277e-05
339 1 16.7706 -0.365258 -3.61026 -3.54023 2.96011e-06
340 1 16.4143 1.40887 -1.80276 -3.5403 1.33533e-05
341 1 16.058 3.18237 0.00473784 -3.54032 2.31201e-05
342 1 15.7023 4.95483 1.81224 -3.54022 1.43398e-05
343 1 18.1857 1.76242 -3.61026 -3.54028 9.51675e-06
344 1 17.8304 3.53544 -1.80276 -3.54025 7.29307e-06
345 1 17.4755 5.3078 0.00473812 -3.54018 2.77029e-06
346 1 17.121 7.07967 1.81224 -3.54015 2.17988e-06
347 1 19.603 3.88859 -3.61026 -3.54022 1.98501e-06
348 1 19.2485 5.66098 -1.80276 -3.54019 8.61894e-07
349 1 18.8941 7.43307 0.00473864 -3.5402 1.24849e-06
350 1 18.5397 9.20482 1.81224 -3.54024 3.28695e-06
351 1 21.0215 6.01429 -3.61026 -3.54022 6.8624e-07
352 1 20.6673 7.7864 -1.80276 -3.54023 1.32042e-06
353 1 20.3132 9.55815 0.00473893 -3.54024 2.14419e-06
354 1 19.9595 11.3295 1.81224 -3.54022 2.03949e-06
355 1 22.4405 8.13974 -3.61026 -3.54023 8.20303e-07
356 1 22.0868 9.9115 -1.80276 -3.54022 8.40744e-07
357 1 21.7333 11.683 0.0047392 -3.5402 1.26e-06
358 1 21.38 13.4542 1.81224 -3.54018 2.85191e-06
359 1 23.8601 10.265 -3.61026 -3.54021 5.14605e-07
360 1 23.5067 12.0367 -1.80276 -3.5402 1.30262e-06
361 1 23.1532 13.8083 0.00473944 -3.54019 2.30101e-06
362 1 22.7996 15.5799 1.81224 -3.54019 2.59312e-06
363 1 25.2797 12.3906 -3.61026 -3.5402 1.19019e-06
364 1 24.926 14.1625 -1.80276 -3.5402 1.59027e-06
365 1 24.5722 15.9345 0.00473967 -3.5402 1.58594e-06
366 1 24.2182 17.7065 1.81224 -3.5402 1.38583e-06
367 1 26.6986 14.5169 -3.61026 -3.54021 1.05776e-06
368 1 26.3446 16.2891 -1.80276 -3.54021 1.0071e-06
369 1 25.9904 18.0613 0.00473996 -3.54021 9.21508e-07
370 1 28.1167 16.6437 -3.61026 -3.54021 6.30327e-07
371 1 27.7624 18.4161 -1.80276 -3.54021 5.78974e-07
372 1 3.61705 -17.685 1.81224 -3.5434 0.0574054
373 1 5.40017 -17.3725 0.00473645 -3.54369 0.00744786
374 1 5.0841 -15.6093 1.81224 -3.5349 0.0095097
375 1 7.19376 -17.0378 -1.80276 -3.53959 0.00146942
376 1 6.86269 -15.2694 0.00473659 -3.53862 0.00374729
377 1 6.52107 -13.4936 1.81224 -3.53789 0.0031059
378 1 8.9762 -16.6879 -3.61026 -3.53916 0.000982337
379 1 8.63203 -14.9161 -1.80276 -3.53974 0.00105689
380 1 8.28053 -13.1372 0.00473665 -3.54051 0.000222717
381 1 7.92215 -11.3579 1.81224 -3.54091 0.000829524
382 1 10.3998 -14.5593 -3.61026 -3.54035 0.000127544
383 1 10.0459 -12.7829 -1.80276 -3.54092 0.000126824
384 1 9.69231 -11.0072 0.00473679 -3.54066 0.000169465
385 1 9.34155 -9.23478 1.81224 -3.53974 8.50846e-05
386 1 11.8162 -12.4292 -3.61026 -3.54057 3.853e-05
387 1 11.4644 -10.6556 -1.80276 -3.54023 1.55787e-05
388 1 11.1134 -8.88203 0.00473714 -3.5398 9.71955e-05
389 1 10.7606 -7.10756 1.81224 -3.53984 0.000120234
390 1 13.2357 -10.3017 -3.61026 -3.54011 2.84588e-05
391 1 12.8828 -8.52737 -1.80276 -3.54006 3.9595e-05
392 1 12.528 -6.75193 0.00473731 -3.54021 1.3242e-05
393 1 12.1715 -4.97614 1.81224 -3.54046 3.42665e-05
394 1 14.6519 -8.17203 -3.61026 -3.54023 8.75996e-06
395 1 14.2966 -6.39697 -1.80276 -3.54033 7.70277e-06
396 1 13.9409 -4.62205 0.00473748 -3.54034 1.22058e-05
397 1 13.5856 -2.84782 1.81224 -3.54022 2.21268e-06
398 1 16.0663 -6.04231 -3.61026 -3.5403 4.27785e-06
399 1 15.7112 -4.268 -1.80276 -3.54024 1.36005e-06
400 1 15.3561 -2.49386 0.00473775 -3.54015 1.54265e-06
401 1 15.0005 -0.71962 1.81224 -3.54014 3.83082e-06
402 1 17.4817 -3.91361 -3.61026 -3.5402 8.41855e-07
403 1 17.1264 -2.1395 -1.80276 -3.54019 1.00829e-06
404 1 16.7706 -0.365258 0.00473801 -3.54023 2.96011e-06
405 1 16.4143 1.40887 1.81224 -3.5403 1.33533e-05
406 1 18.897 -1.78509 -3.61026 -3.54023 1.91909e-06
407 1 18.5413 -0.0111835 -1.80276 -3.54027 5.56037e-06
408 1 18.1857 1.76242 0.00473829 -3.54028 9.51675e-06
409 1 17.8304 3.53544 1.81224 -3.54025 7.29307e-06
410 1 20.3128 0.342676 -3.61026 -3.54026 4.70479e-06
411 1 19.9578 2.11583 -1.80276 -3.54025 4.22217e-06
412 1 19.603 3.88859 0.00473877 -3.54022 1.98501e-06
413 1 19.2485 5.66098 1.81224 -3.54019 8.61894e-07
414 1 21.7302 2.46932 -3.61026 -3.54023 1.73753e-06
415 1 21.3757 4.24192 -1.80276 -3.54022 8.30624e-07
416 1 21.0215 6.01429 0.00473906 -3.54022 6.8624e-07
417 1 20.6673 7.7864 1.81224 -3.54023 1.32042e-06
418 1 23.1485 4.5954 -3.61026 -3.54022 6.13679e-07
419 1 22.7944 6.36768 -1.80276 -3.54023 6.52383e-07
420 1 22.4405 8.13974 0.00473929 -3.54023 8.20303e-07
421 1 22.0868 9.9115 1.81224 -3.54022 8.40744e-07
422 1 24.5674 6.72118 -3.61026 -3.54023 4.04205e-07
423 1 24.2137 8.4932 -1.80276 -3.54022 3.38455e-07
424 1 23.8601 10.265 0.00473957 -3.54021 5.14605e-07
425 1 23.5067 12.0367 1.81224 -3.5402 1.30262e-06
426 1 25.9868 8.84685 -3.61026 -3.54022 2.33289e-07
427 1 25.6332 10.6188 -1.80276 -3.54021 5.94426e-07
428 1 25.2797 12.3906 0.00473985 -3.5402 1.19019e-06
429 1 24.926 14.1625 1.81224 -3.5402 1.59027e-06
430 1 27.4061 10.9727 -3.61026 -3.54021 6.4728e-07
431 1 27.0524 12.7448 -1.80276 -3.54021 9.55144e-07
432 1 26.6986 14.5169 0.00474011 -3.54021 1.05776e-06
433 1 26.3446 16.2891 1.81224 -3.54021 1.0071e-06
434 1 28.8249 13.0991 -3.61026 -3.54021 7.08774e-07
435 1 28.4709 14.8714 -1.80276 -3.54021 6.81461e-07
436 1 28.1167 16.6437 0.00474038 -3.54021 6.30327e-07
437 1 27.7624 18.4161 1.81224 -3.54021 5.78974e-07
438 1 30.2431 15.2259 -3.61026 -3.54021 4.07061e-07
439 1 29.8888 16.9983 -1.80276 -3.54021 3.88392e-07
440 1 31.6608 17.353 -3.61026 -3.54022 2.70922e-07
441 1 7.19376 -17.0378 1.81224 -3.53959 0.00146942
442 1 8.9762 -16.6879 0.00473674 -3.53916 0.000982337
443 1 8.63203 -14.9161 1.81224 -3.53974 0.00105689
444 1 11.0986 -18.1029 -3.61026 -3.53961 0.000214793
445 1 10.7509 -16.3329 -1.80276 -3.53968 0.00034049
446 1 10.3998 -14.5593 0.00473685 -3.54035 0.000127544
447 1 10.0459 -12.7829 1.81224 -3.54092 0.000126824
448 1 12.5226 -15.9767 -3.61026 -3.54013 5.59365e-05
449 1 12.1695 -14.2032 -1.80276 -3.54047 2.03262e-05
450 1 11.8162 -12.4292 0.00473722 -3.54057 3.853e-05
451 1 11.4644 -10.6556 1.81224 -3.54023 1.55787e-05
452 1 13.9409 -13.848 -3.61026 -3.54035 5.64781e-06
453 1 13.588 -12.075 -1.80276 -3.54026 7.8845e-06
454 1 13.2357 -10.3017 0.00473743 -3.54011 2.84588e-05
455 1 12.8828 -8.52737 1.81224 -3.54006 3.9595e-05
456 1 15.3597 -11.72 -3.61026 -3.54017 1.01101e-05
457 1 15.0062 -9.94648 -1.80276 -3.54015 1.65094e-05
458 1 14.6519 -8.17203 0.00473763 -3.54023 8.75996e-06
459 1 14.2966 -6.39697 1.81224 -3.54033 7.70277e-06
460 1 16.7765 -9.59083 -3.61026 -3.54022 5.2393e-06
461 1 16.4216 -7.81671 -1.80276 -3.54028 3.72147e-06
462 1 16.0663 -6.04231 0.00473784 -3.5403 4.27785e-06
463 1 15.7112 -4.268 1.81224 -3.54024 1.36005e-06
464 1 18.192 -7.46149 -3.61026 -3.54026 2.12827e-06
465 1 17.8368 -5.6876 -1.80276 -3.54024 1.61294e-06
466 1 17.4817 -3.91361 0.00473812 -3.5402 8.41855e-07
467 1 17.1264 -2.1395 1.81224 -3.54019 1.00829e-06
468 1 19.6077 -5.33275 -3.61026 -3.54022 1.00751e-06
469 1 19.2525 -3.55899 -1.80276 -3.54021 1.03899e-06
470 1 18.897 -1.78509 0.00473864 -3.54023 1.91909e-06
471 1 18.5413 -0.0111835 1.81224 -3.54027 5.56037e-06
472 1 21.0235 -3.20434 -3.61026 -3.54023 1.48594e-06
473 1 20.6681 -1.43078 -1.80276 -3.54025 3.00788e-06
474 1 20.3128 0.342676 0.00473893 -3.54026 4.70479e-06
475 1 19.9578 2.11583 1.81224 -3.54025 4.22217e-06
476 1 22.4398 -1.07658 -3.61026 -3.54025 2.69164e-06
477 1 22.0849 0.696475 -1.80276 -3.54024 2.72525e-06
478 1 21.7302 2.46932 0.0047392 -3.54023 1.73753e-06
479 1 21.3757 4.24192 1.81224 -3.54022 8.30624e-07
480 1 23.8572 1.05031 -3.61026 -3.54023 1.44968e-06
481 1 23.5028 2.82293 -1.80276 -3.54022 9.09063e-07
482 1 23.1485 4.5954 0.00473944 -3.54022 6.13679e-07
483 1 22.7944 6.36768 1.81224 -3.54023 6.52383e-07
484 1 25.2755 3.17666 -3.61026 -3.54023 5.87727e-07
485 1 24.9214 4.94899 -1.80276 -3.54023 4.6817e-07
486 1 24.5674 6.72118 0.00473967 -3.54023 4.04205e-07
487 1 24.2137 8.4932 1.81224 -3.54022 3.38455e-07
488 1 26.6943 5.30271 -3.61026 -3.54023 2.81639e-07
489 1 26.3404 7.07483 -1.80276 -3.54022 1.96926e-07
490 1 25.9868 8.84685 0.00473996 -3.54022 2.33289e-07
491 1 25.6332 10.6188 1.81224 -3.54021 5.94426e-07
492 1 28.1134 7.42866 -3.61026 -3.54022 1.44122e-07
493 1 27.7597 9.2007 -1.80276 -3.54021 3.06494e-07
494 1 27.4061 10.9727 0.00474024 -3.54021 6.4728e-07
495 1 27.0524 12.7448 1.81224 -3.54021 9.55144e-07
496 1 29.5325 9.55476 -3.61026 -3.54021 3.90733e-07
497 1 29.1787 11.3269 -1.80276 -3.54021 6.18238e-07
498 1 28.8249 13.0991 0.00474049 -3.54021 7.08774e-07
499 1 28.4709 14.8714 1.81224 -3.54021 6.81461e-07
500 1 30.9512 11.6812 -3.61026 -3.54021 5.18149e-07
501 1 30.5972 13.4535 -1.80276 -3.54021 4.63258e-07
502 1 30.2431 15.2259 0.00474074 -3.54021 4.07061e-07
503 1 29.8888 16.9983 1.81224 -3.54021 3.88392e-07
504 1 32.3694 13.808 -3.61026 -3.54021 2.38555e-07
505 1 32.0151 15.5805 -1.80276 -3.54021 2.44034e-07
506 1 31.6608 17.353 0.00474093 -3.54022 2.70922e-07
507 1 33.7872 15.9351 -3.61026 -3.54022 2.20225e-07
508 1 33.4327 17.7076 -1.80276 -3.54022 2.3869e-07
509 1 35.2046 18.0623 -3.61026 -3.54023 1.96456e-07
510 1 11.0986 -18.1029 0.00473714 -3.53961 0.000214793
511 1 10.7509 -16.3329 1.81224 -3.53968 0.00034049
512 1 12.874 -17.7484 -1.80276 -3.53991 0.000111691
513 1 12.5226 -15.9767 0.00473731 -3.54013 5.59365e-05
514 1 12.1695 -14.2032 1.81224 -3.54047 2.03262e-05
515 1 14.6473 -17.3927 -3.61026 -3.54013 2.95655e-05
516 1 14.2943 -15.6207 -1.80276 -3.54029 6.8661e-06
517 1 13.9409 -13.848 0.00473748 -3.54035 5.64781e-06
518 1 13.588 -12.075 1.81224 -3.54026 7.8845e-06
519 1 16.0665 -15.265 -3.61026 -3.54027 1.85085e-06
520 1 15.713 -13.4927 -1.80276 -3.54024 2.90854e-06
521 1 15.3597 -11.72 0.00473775 -3.54017 1.01101e-05
522 1 15.0062 -9.94648 1.81224 -3.54015 1.65094e-05
523 1 17.4849 -13.1372 -3.61026 -3.54019 4.11326e-06
524 1 17.1309 -11.3643 -1.80276 -3.54018 6.66684e-06
525 1 16.7765 -9.59083 0.00473801 -3.54022 5.2393e-06
526 1 16.4216 -7.81671 1.81224 -3.54028 3.72147e-06
527 1 18.902 -11.0086 -3.61026 -3.54021 2.54694e-06
528 1 18.5471 -9.2352 -1.80276 -3.54024 1.87158e-06
529 1 18.192 -7.46149 0.00473829 -3.54026 2.12827e-06
530 1 17.8368 -5.6876 1.81224 -3.54024 1.61294e-06
531 1 20.3181 -8.87971 -3.61026 -3.54024 9.05999e-07
532 1 19.9629 -7.10632 -1.80276 -3.54024 1.07449e-06
533 1 19.6077 -5.33275 0.00473877 -3.54022 1.00751e-06
534 1 19.2525 -3.55899 1.81224 -3.54021 1.03899e-06
535 1 21.7341 -6.75118 -3.61026 -3.54022 6.45007e-07
536 1 21.3789 -4.97783 -1.80276 -3.54022 8.8124e-07
537 1 21.0235 -3.20434 0.00473906 -3.54023 1.48594e-06
538 1 20.6681 -1.43078 1.81224 -3.54025 3.00788e-06
539 1 23.1503 -4.62298 -3.61026 -3.54023 9.69451e-07
540 1 22.795 -2.84977 -1.80276 -3.54024 1.79381e-06
541 1 22.4398 -1.07658 0.00473929 -3.54025 2.69164e-06
542 1 22.0849 0.696475 1.81224 -3.54024 2.72525e-06
543 1 24.5669 -2.49532 -3.61026 -3.54024 1.58637e-06
544 1 24.2119 -0.722447 -1.80276 -3.54024 1.79839e-06
545 1 23.8572 1.05031 0.00473957 -3.54023 1.44968e-06
546 1 23.5028 2.82293 1.81224 -3.54022 9.09063e-07
547 1 25.9843 -0.368322 -3.61026 -3.54023 1.08395e-06
548 1 25.6298 1.40422 -1.80276 -3.54023 8.23381e-07
549 1 25.2755 3.17666 0.00473985 -3.54023 5.87727e-07
550 1 24.9214 4.94899 1.81224 -3.54023 4.6817e-07
551 1 27.4025 1.75818 -3.61026 -3.54023 4.81738e-07
552 1 27.0483 3.53049 -1.80276 -3.54023 3.69315e-07
553 1 26.6943 5.30271 0.00474011 -3.54023 2.81639e-07
554 1 26.3404 7.07483 1.81224 -3.54022 1.96926e-07
555 1 28.8211 3.88442 -3.61026 -3.54022 2.059e-07
556 1 28.4672 5.65657 -1.80276 -3.54022 1.53475e-07
557 1 28.1134 7.42866 0.00474038 -3.54022 1.44122e-07
558 1 27.7597 9.2007 1.81224 -3.54021 3.06494e-07
559 1 30.2401 6.01056 -3.61026 -3.54022 1.00175e-07
560 1 29.8863 7.78266 -1.80276 -3.54021 1.7381e-07
561 1 29.5325 9.55476 0.00474063 -3.54021 3.90733e-07
562 1 29.1787 11.3269 1.81224 -3.54021 6.18238e-07
563 1 31.659 8.1368 -3.61026 -3.54021 2.46137e-07
564 1 31.3051 9.90897 -1.80276 -3.54022 4.51198e-07
565 1 30.9512 11.6812 0.00474083 -3.54021 5.18149e-07
566 1 30.5972 13.4535 1.81224 -3.54021 4.63258e-07
567 1 33.0776 10.2633 -3.61026 -3.54022 4.41672e-07
568 1 32.7235 12.0356 -1.80276 -3.54021 3.26691e-07
569 1 32.3694 13.808 0.00474099 -3.54021 2.38555e-07
570 1 32.0151 15.5805 1.81224 -3.54021 2.44034e-07
571 1 34.4958 12.3902 -3.61026 -3.54021 1.00092e-07
572 1 34.1415 14.1626 -1.80276 -3.54021 1.17013e-07
573 1 33.7872 15.9351 0.00474113 -3.54022 2.20225e-07
574 1 33.4327 17.7076 1.81224 -3.54022 2.3869e-07
575 1 35.9137 14.5172 -3.61026 -3.54021 1.7788e-07
576 1 35.5593 16.2897 -1.80276 -3.54023 3.4731e-07