ITEM: TIMESTEP
0
ITEM: NUMBER OF ATOMS
2504
ITEM: BOX BOUNDS xy xz yz mm pp pp
-5.5498871899999997e+01 5.5498871899999997e+01 0.0000000000000000e+00
-1.8432957300000002e+01 1.8432957300000002e+01 0.0000000000000000e+00
-3.6150000000000002e+00 3.6150000000000002e+00 0.0000000000000000e+00
ITEM: ATOMS id type x y z c_eng c_csym
1 1 0.631287 16.7706 -3.60019 -3.43923 3.53333
2 1 0.291823 -18.2772 -1.79269 -3.28094 9.03164
3 1 0.982744 13.0519 -3.60019 -3.50168 0.300048
4 1 0.84851 14.8096 -1.79269 -3.50394 0.582832
5 1 0.631287 16.7706 0.0148053 -3.43923 3.53333
6 1 0.291823 -18.2772 1.82231 -3.28094 9.03164
7 1 2.57437 15.1809 -3.60019 -3.54046 0.118641
8 1 2.28315 17.0209 -1.79269 -3.51937 0.0845758
9 1 3.96996 17.3793 -3.60019 -3.54426 0.0303672
10 1 0.502943 7.40658 -3.60019 -3.52204 0.785248
11 1 0.160248 9.15603 -1.79269 -3.38105 2.23233
12 1 1.80301 9.60137 -3.60019 -3.50492 0.195349
13 1 1.32313 11.3682 -1.79269 -3.50644 0.288269
14 1 0.982744 13.0519 0.0148054 -3.50168 0.300048
15 1 0.84851 14.8096 1.82231 -3.50394 0.582832
16 1 3.18765 11.6949 -3.60019 -3.52594 0.0325693
17 1 2.88449 13.4091 -1.79269 -3.51633 0.0633134
18 1 2.57437 15.1809 0.0148054 -3.54046 0.118641
19 1 2.28315 17.0209 1.82231 -3.51937 0.0845758
20 1 4.67885 13.7839 -3.60019 -3.53352 0.0127083
21 1 4.33321 15.5587 -1.79269 -3.53786 0.015736
22 1 3.96996 17.3793 0.0148055 -3.54426 0.0303672
23 1 6.08794 15.9331 -3.60019 -3.54109 0.00312851
24 1 5.72458 17.7204 -1.79269 -3.54499 0.0149737
25 1 7.51227 18.0581 -3.60019 -3.54163 0.00361139
26 1 1.10698 3.7843 -3.60019 -3.53528 0.0978491
27 1 0.822868 5.56742 -1.79269 -3.54316 0.05574
28 1 0.502943 7.40658 0.0148053 -3.52205 0.785166
29 1 0.160248 9.15603 1.82231 -3.38188 2.23233
30 1 2.57046 5.94528 -3.60019 -3.54141 0.0250863
31 1 2.23013 7.74545 -1.79269 -3.52434 0.0367522
32 1 1.80301 9.60137 0.0148055 -3.50492 0.195349
33 1 1.32313 11.3682 1.82231 -3.50644 0.288269
34 1 3.94108 8.13678 -3.60019 -3.54319 0.0139222
35 1 3.54656 9.93473 -1.79269 -3.5428 0.046808
36 1 3.18765 11.6949 0.0148055 -3.52594 0.0325693
37 1 2.88449 13.4091 1.82231 -3.51633 0.0633134
38 1 5.34156 10.2693 -3.60019 -3.54171 0.0065511
39 1 5.01073 12.0246 -1.79269 -3.53448 0.00608179
40 1 4.67885 13.7839 0.0148062 -3.53352 0.0127083
41 1 4.33321 15.5587 1.82231 -3.53786 0.015736
42 1 6.79903 12.3783 -3.60019 -3.53795 0.0026598
43 1 6.45077 14.1502 -1.79269 -3.53806 0.00185378
44 1 6.08794 15.9331 0.0148062 -3.54109 0.00312851
45 1 5.72458 17.7204 1.82231 -3.54499 0.0149737
46 1 8.21941 14.5124 -3.60019 -3.54061 0.000461125
47 1 7.86063 16.2877 -1.79269 -3.54158 0.00279245
48 1 7.51227 18.0581 0.0148063 -3.54163 0.00361139
49 1 9.64591 16.6354 -3.60019 -3.5408 0.000971184
50 1 9.30607 18.399 -1.79269 -3.5398 0.000517412
51 1 0.520435 -1.82895 -3.60019 -3.5274 0.59123
52 1 0.187197 -0.0977246 -1.79269 -3.41313 1.54461
53 1 1.91102 0.30717 -3.60019 -3.52452 0.0881659
54 1 1.48833 2.06086 -1.79269 -3.52326 0.0886244
55 1 1.10698 3.7843 0.0148054 -3.53528 0.0977669
56 1 0.822868 5.56742 1.82231 -3.54244 0.05574
57 1 3.28891 2.43797 -3.60019 -3.53309 0.00752276
58 1 2.92868 4.18032 -1.79269 -3.53357 0.00945161
59 1 2.57046 5.94528 0.0148054 -3.54141 0.0250863
60 1 2.23013 7.74545 1.82231 -3.52446 0.0367522
61 1 4.70574 4.5675 -3.60019 -3.53675 0.00273685
62 1 4.33246 6.33781 -1.79269 -3.53784 0.00513738
63 1 3.94108 8.13678 0.0148055 -3.54319 0.0139222
64 1 3.54656 9.93473 1.82231 -3.5428 0.046808
65 1 6.08769 6.72364 -3.60019 -3.54092 0.00233919
66 1 5.70357 8.50078 -1.79269 -3.54352 0.00978157
67 1 5.34156 10.2693 0.0148062 -3.54171 0.0065511
68 1 5.01073 12.0246 1.82231 -3.53448 0.00608179
69 1 7.49094 8.85563 -3.60019 -3.54084 0.00214191
70 1 7.14076 10.6154 -1.79269 -3.53897 0.000830217
71 1 6.79903 12.3783 0.0148063 -3.53795 0.0026598
72 1 6.45077 14.1502 1.82231 -3.53806 0.00185378
73 1 8.9286 10.9718 -3.60019 -3.53907 0.000491553
74 1 8.57649 12.7388 -1.79269 -3.53952 0.000487117
75 1 8.21941 14.5124 0.0148063 -3.54061 0.000461125
76 1 7.86063 16.2877 1.82231 -3.54158 0.00279245
77 1 10.353 13.0985 -3.60019 -3.5404 0.000109646
78 1 9.99661 14.8679 -1.79269 -3.541 0.000706723
79 1 9.64591 16.6354 0.0148064 -3.5408 0.000971184
80 1 9.30607 18.399 1.82231 -3.5398 0.000517412
81 1 11.7803 15.2201 -3.60019 -3.54056 0.000300087
82 1 11.4343 16.9837 -1.79269 -3.54007 0.000167839
83 1 13.2201 17.3354 -3.60019 -3.53982 0.00013447
84 1 1.15354 -5.39462 -3.60019 -3.52871 0.142049
85 1 0.844685 -3.64801 -1.79269 -3.54841 0.0696047
86 1 0.520435 -1.82895 0.0148053 -3.5274 0.591148
87 1 0.187197 -0.0977246 1.82231 -3.41338 1.54461
88 1 2.62319 -3.24962 -3.60019 -3.54342 0.0202372
89 1 2.28485 -1.49158 -1.79269 -3.53391 0.0183664
90 1 1.91102 0.30717 0.0148055 -3.52452 0.0881248
91 1 1.48833 2.06086 1.82231 -3.52369 0.0886244
92 1 4.03988 -1.09882 -3.60019 -3.54298 0.00276112
93 1 3.66285 0.672306 -1.79269 -3.54102 0.00375458
94 1 3.28891 2.43797 0.0148055 -3.53309 0.00752276
95 1 2.92868 4.18032 1.82231 -3.53368 0.00945161
96 1 5.4356 1.04254 -3.60019 -3.5415 0.000475035
97 1 5.07172 2.80373 -1.79269 -3.53845 0.000837671
98 1 4.70574 4.5675 0.0148062 -3.53675 0.00273685
99 1 4.33246 6.33781 1.82231 -3.53784 0.00513738
100 1 6.84345 3.176 -3.60019 -3.5394 0.000553065
101 1 6.47082 4.94634 -1.79269 -3.53898 0.000626255
102 1 6.08769 6.72364 0.0148062 -3.54092 0.00233919
103 1 5.70357 8.50078 1.82231 -3.54352 0.00978157
104 1 8.23505 5.31839 -3.60019 -3.54057 0.000676077
105 1 7.85835 7.08997 -1.79269 -3.54129 0.00244164
106 1 7.49094 8.85563 0.0148063 -3.54084 0.00214191
107 1 7.14076 10.6154 1.82231 -3.53897 0.000830217
108 1 9.63942 7.44742 -3.60019 -3.5405 0.000813182
109 1 9.28073 9.20981 -1.79269 -3.53957 0.00019895
110 1 8.9286 10.9718 0.0148064 -3.53907 0.000491553
111 1 8.57649 12.7388 1.82231 -3.53952 0.000487117
112 1 11.0653 9.56586 -3.60019 -3.53955 7.46376e-05
113 1 10.7097 11.3307 -1.79269 -3.53971 8.15611e-05
114 1 10.353 13.0985 0.0148064 -3.5404 0.000109646
115 1 9.99661 14.8679 1.82231 -3.541 0.000706723
116 1 12.4889 11.6881 -3.60019 -3.54016 3.04089e-05
117 1 12.1329 13.4546 -1.79269 -3.54053 0.000187525
118 1 11.7803 15.2201 0.0148071 -3.54056 0.000300087
119 1 11.4343 16.9837 1.82231 -3.54007 0.000167839
120 1 13.9153 13.8081 -3.60019 -3.54033 9.79114e-05
121 1 13.5656 15.572 -1.79269 -3.54014 6.18837e-05
122 1 13.2201 17.3354 0.0148072 -3.53982 0.00013447
123 1 15.3489 15.9251 -3.60019 -3.53997 5.14453e-05
124 1 15.0019 17.6898 -1.79269 -3.53985 0.000147161
125 1 16.7802 18.046 -3.60019 -3.53996 0.000105492
126 1 0.701073 -10.902 -3.60019 -3.46091 2.92807
127 1 0.415424 -9.13198 -1.79269 -3.30203 8.2758
128 1 2.06193 -8.79545 -3.60019 -3.49277 0.35261
129 1 1.60444 -7.03895 -1.79269 -3.48488 0.336415
130 1 1.15354 -5.39462 0.0148054 -3.52872 0.141967
131 1 0.844685 -3.64801 1.82231 -3.54775 0.0696047
132 1 3.39158 -6.69566 -3.60019 -3.52767 0.0599236
133 1 3.00758 -4.96723 -1.79269 -3.52649 0.0265682
134 1 2.62319 -3.24962 0.0148054 -3.54342 0.0202372
135 1 2.28485 -1.49158 1.82231 -3.53408 0.0183664
136 1 4.79317 -4.60148 -3.60019 -3.53466 0.012442
137 1 4.41919 -2.8546 -1.79269 -3.53638 0.00472502
138 1 4.03988 -1.09882 0.0148061 -3.54298 0.00276112
139 1 3.66285 0.672306 1.82231 -3.54107 0.00375458
140 1 6.18895 -2.48114 -3.60019 -3.53823 0.0029747
141 1 5.81024 -0.718542 -1.79269 -3.54071 0.000854616
142 1 5.4356 1.04254 0.0148062 -3.5415 0.000475035
143 1 5.07172 2.80373 1.82231 -3.53845 0.000837671
144 1 7.58178 -0.352825 -3.60019 -3.53972 0.000950893
145 1 7.21209 1.41109 -1.79269 -3.53965 0.000330505
146 1 6.84345 3.176 0.0148063 -3.5394 0.000553065
147 1 6.47082 4.94634 1.82231 -3.53898 0.000626255
148 1 8.98235 1.77603 -3.60019 -3.53936 0.000426408
149 1 8.61096 3.54614 -1.79269 -3.53971 0.00024639
150 1 8.23505 5.31839 0.0148063 -3.54057 0.000676077
151 1 7.85835 7.08997 1.82231 -3.54129 0.00244164
152 1 10.3782 3.9097 -3.60019 -3.54017 0.000382984
153 1 10.0067 5.68061 -1.79269 -3.54067 0.000835409
154 1 9.63942 7.44742 0.0148064 -3.5405 0.000813182
155 1 9.28073 9.20981 1.82231 -3.53957 0.00019895
156 1 11.7833 6.03628 -3.60019 -3.54029 0.00041727
157 1 11.4223 7.80208 -1.79269 -3.53992 0.000158328
158 1 11.0653 9.56586 0.0148071 -3.53955 7.46376e-05
159 1 10.7097 11.3307 1.82231 -3.53971 8.15611e-05
160 1 13.2028 8.15594 -3.60019 -3.53984 6.31321e-05
161 1 12.8458 9.92188 -1.79269 -3.53985 2.98444e-05
162 1 12.4889 11.6881 0.0148072 -3.54016 3.04089e-05
163 1 12.1329 13.4546 1.82231 -3.54053 0.000187525
164 1 14.6246 10.2764 -3.60019 -3.5401 3.74668e-05
165 1 14.2689 12.0429 -1.79269 -3.54028 7.02229e-05
166 1 13.9153 13.8081 0.0148073 -3.54033 9.79114e-05
167 1 13.5656 15.572 1.82231 -3.54014 6.18837e-05
168 1 16.0494 12.3957 -3.60019 -3.54023 4.87694e-05
169 1 15.6978 14.1608 -1.79269 -3.54014 3.17222e-05
170 1 15.3489 15.9251 0.0148074 -3.53997 5.14453e-05
171 1 15.0019 17.6898 1.82231 -3.53985 0.000147161
172 1 17.4787 14.5138 -3.60019 -3.54005 2.99262e-05
173 1 17.1292 16.2795 -1.79269 -3.53997 6.71713e-05
174 1 16.7802 18.046 0.0148075 -3.53996 0.000105492
175 1 18.9068 16.6346 -3.60019 -3.54003 5.82563e-05
176 1 18.5559 18.4028 -1.79269 -3.54006 6.1927e-05
177 1 1.0084 -14.5473 -3.60019 -3.48562 0.458863
178 1 0.895591 -12.8048 -1.79269 -3.52217 0.473336
179 1 0.701073 -10.902 0.0148053 -3.46091 2.92807
180 1 0.415424 -9.13198 1.82231 -3.30101 8.2758
181 1 2.65725 -12.4651 -3.60019 -3.54289 0.125181
182 1 2.39816 -10.6634 -1.79269 -3.5306 0.0840474
183 1 2.06193 -8.79545 0.0148055 -3.49277 0.352569
184 1 1.60444 -7.03895 1.82231 -3.48549 0.336415
185 1 4.1082 -10.3079 -3.60019 -3.54496 0.0197489
186 1 3.75909 -8.4926 -1.79269 -3.54093 0.0144035
187 1 3.39158 -6.69566 0.0148055 -3.52767 0.0599236
188 1 3.00758 -4.96723 1.82231 -3.5266 0.0265682
189 1 5.50113 -8.15858 -3.60019 -3.5439 0.00278646
190 1 5.15319 -6.37201 -1.79269 -3.53929 0.00411739
191 1 4.79317 -4.60148 0.0148062 -3.53466 0.012442
192 1 4.41919 -2.8546 1.82231 -3.53638 0.00472502
193 1 6.91195 -6.03147 -3.60019 -3.54055 0.000307934
194 1 6.55726 -4.25251 -1.79269 -3.53858 0.00228139
195 1 6.18895 -2.48114 0.0148062 -3.53823 0.0029747
196 1 5.81024 -0.718542 1.82231 -3.54071 0.000854616
197 1 8.31538 -3.90123 -3.60019 -3.5401 0.000277316
198 1 7.95144 -2.1233 -1.79269 -3.53979 0.00095701
199 1 7.58178 -0.352825 0.0148063 -3.53972 0.000950893
200 1 7.21209 1.41109 1.82231 -3.53965 0.000330505
201 1 9.71388 -1.76967 -3.60019 -3.54019 0.000213385
202 1 9.34977 0.00516023 -1.79269 -3.53962 0.000437982
203 1 8.98235 1.77603 0.0148064 -3.53936 0.000426408
204 1 8.61096 3.54614 1.82231 -3.53971 0.00024639
205 1 11.1147 0.360966 -3.60019 -3.53983 0.00015193
206 1 10.7485 2.13628 -1.79269 -3.53975 0.00024169
207 1 10.3782 3.9097 0.0148071 -3.54017 0.000382984
208 1 10.0067 5.68061 1.82231 -3.54067 0.000835409
209 1 12.5145 2.49243 -3.60019 -3.54016 0.000194296
210 1 12.1484 4.26639 -1.79269 -3.54032 0.000398635
211 1 11.7833 6.03628 0.0148071 -3.54029 0.00041727
212 1 11.4223 7.80208 1.82231 -3.53992 0.000158328
213 1 13.9211 4.61894 -3.60019 -3.54026 0.000217879
214 1 13.5609 6.38887 -1.79269 -3.54005 0.000147151
215 1 13.2028 8.15594 0.0148072 -3.53984 6.31321e-05
216 1 12.8458 9.92188 1.82231 -3.53985 2.98444e-05
217 1 15.3376 6.74035 -3.60019 -3.54003 5.80348e-05
218 1 14.981 8.50896 -1.79269 -3.53998 4.17178e-05
219 1 14.6246 10.2764 0.0148073 -3.5401 3.74668e-05
220 1 14.2689 12.0429 1.82231 -3.54028 7.02229e-05
221 1 16.758 8.86095 -3.60019 -3.54013 3.44136e-05
222 1 16.4031 10.6291 -1.79269 -3.5402 4.54581e-05
223 1 16.0494 12.3957 0.0148074 -3.54023 4.87694e-05
224 1 15.6978 14.1608 1.82231 -3.54014 3.17222e-05
225 1 18.1814 10.9807 -3.60019 -3.5402 2.98376e-05
226 1 17.8293 12.7478 -1.79269 -3.54015 2.4521e-05
227 1 17.4787 14.5138 0.0148075 -3.54005 2.99262e-05
228 1 17.1292 16.2795 1.82231 -3.53997 6.71713e-05
229 1 19.6078 13.1 -3.60019 -3.54011 2.00569e-05
230 1 19.2572 14.8673 -1.79269 -3.54005 3.75843e-05
231 1 18.9068 16.6346 0.0148077 -3.54003 5.82563e-05
232 1 18.5559 18.4028 1.82231 -3.54006 6.1927e-05
233 1 21.0336 15.2213 -3.60019 -3.54008 3.45342e-05
234 1 20.6821 16.9902 -1.79269 -3.54009 4.04622e-05
235 1 22.4558 17.3459 -3.60019 -3.54013 2.56459e-05
236 1 1.89503 -17.9281 -3.60019 -3.45349 0.627103
237 1 1.37742 -16.1547 -1.79269 -3.44014 0.684183
238 1 1.0084 -14.5473 0.0148054 -3.48562 0.458863
239 1 0.895591 -12.8048 1.82231 -3.52217 0.473336
240 1 3.26124 -15.8785 -3.60019 -3.51756 0.0889657
241 1 2.95936 -14.187 -1.79269 -3.50894 0.0672566
242 1 2.65725 -12.4651 0.0148054 -3.54289 0.125181
243 1 2.39816 -10.6634 1.82231 -3.53065 0.0840474
244 1 4.77518 -13.8435 -3.60019 -3.53077 0.0198861
245 1 4.44909 -12.0946 -1.79269 -3.53589 0.0183265
246 1 4.1082 -10.3079 0.0148061 -3.54496 0.0197489
247 1 3.75909 -8.4926 1.82231 -3.54098 0.0144035
248 1 6.21117 -11.7277 -3.60019 -3.53839 0.00238863
249 1 5.85497 -9.94718 -1.79269 -3.54269 0.00182652
250 1 5.50113 -8.15858 0.0148062 -3.5439 0.00278646
251 1 5.15319 -6.37201 1.82231 -3.53929 0.00411739
252 1 7.61473 -9.59195 -3.60019 -3.54073 0.000155909
253 1 7.26208 -7.81251 -1.79269 -3.54122 0.000302268
254 1 6.91195 -6.03147 0.0148063 -3.54055 0.000307934
255 1 6.55726 -4.25251 1.82231 -3.53858 0.00228139
256 1 9.02559 -7.46149 -3.60019 -3.54013 3.34013e-05
257 1 8.67237 -5.68194 -1.79269 -3.54026 0.000128858
258 1 8.31538 -3.90123 0.0148063 -3.5401 0.000277316
259 1 7.95144 -2.1233 1.82231 -3.53979 0.00095701
260 1 10.4333 -5.32887 -3.60019 -3.54018 3.87317e-05
261 1 10.0751 -3.54853 -1.79269 -3.54039 5.00222e-05
262 1 9.71388 -1.76967 0.0148064 -3.54019 0.000213385
263 1 9.34977 0.00516023 1.82231 -3.53962 0.000437982
264 1 11.837 -3.19523 -3.60019 -3.54028 1.72709e-05
265 1 11.4771 -1.41632 -1.79269 -3.54014 4.89885e-05
266 1 11.1147 0.360966 0.0148071 -3.53983 0.00015193
267 1 10.7485 2.13628 1.82231 -3.53975 0.00024169
268 1 13.2408 -1.06256 -3.60019 -3.54012 2.06747e-05
269 1 12.879 0.715676 -1.79269 -3.54008 6.56574e-05
270 1 12.5145 2.49243 0.0148072 -3.54016 0.000194296
271 1 12.1484 4.26639 1.82231 -3.54032 0.000398635
272 1 14.6446 1.06914 -3.60019 -3.54025 7.04606e-05
273 1 14.2828 2.84547 -1.79269 -3.54031 0.000164162
274 1 13.9211 4.61894 0.0148073 -3.54026 0.000217879
275 1 13.5609 6.38887 1.82231 -3.54005 0.000147151
276 1 16.0533 3.19679 -3.60019 -3.5403 9.76319e-05
277 1 15.6949 4.9698 -1.79269 -3.54018 8.61789e-05
278 1 15.3376 6.74035 0.0148074 -3.54003 5.80348e-05
279 1 14.981 8.50896 1.82231 -3.53998 4.17178e-05
280 1 17.469 5.32027 -3.60019 -3.54017 3.41406e-05
281 1 17.1134 7.09137 -1.79269 -3.54011 2.97032e-05
282 1 16.758 8.86095 0.0148075 -3.54013 3.44136e-05
283 1 16.4031 10.6291 1.82231 -3.5402 4.54581e-05
284 1 18.8887 7.44213 -3.60019 -3.54019 1.93387e-05
285 1 18.5347 9.21215 -1.79269 -3.5402 2.62896e-05
286 1 18.1814 10.9807 0.0148076 -3.5402 2.98376e-05
287 1 17.8293 12.7478 1.82231 -3.54015 2.4521e-05
288 1 20.3112 9.56305 -3.60019 -3.54022 1.44704e-05
289 1 19.9591 11.332 -1.79269 -3.54018 1.50609e-05
290 1 19.6078 13.1 0.0148084 -3.54011 2.00569e-05
291 1 19.2572 14.8673 1.82231 -3.54005 3.75843e-05
292 1 21.7358 11.6837 -3.60019 -3.54016 1.05428e-05
293 1 21.3847 13.4526 -1.79269 -3.54011 2.11719e-05
294 1 21.0336 15.2213 0.0148085 -3.54008 3.45342e-05
295 1 20.6821 16.9902 1.82231 -3.54009 4.04622e-05
296 1 23.16 13.8058 -3.60019 -3.54013 1.94134e-05
297 1 22.8082 15.5757 -1.79269 -3.54012 2.57579e-05
298 1 22.4558 17.3459 0.0148086 -3.54013 2.56459e-05
299 1 24.5816 15.9304 -3.60019 -3.54016 1.72329e-05
300 1 24.2285 17.7015 -1.79269 -3.54016 1.56984e-05
301 1 26.0003 18.0572 -3.60019 -3.54018 9.41184e-06
302 1 1.89503 -17.9281 0.0148055 -3.45349 0.627103
303 1 1.37742 -16.1547 1.82231 -3.44014 0.684183
304 1 3.60446 -17.659 -1.79269 -3.54165 0.0690417
305 1 3.26124 -15.8785 0.0148055 -3.51756 0.0889657
306 1 2.95936 -14.187 1.82231 -3.50894 0.0672566
307 1 5.38637 -17.3627 -3.60019 -3.54416 0.0122055
308 1 5.08212 -15.5971 -1.79269 -3.53551 0.00812084
309 1 4.77518 -13.8435 0.0148062 -3.53077 0.0198861
310 1 4.44909 -12.0946 1.82231 -3.53589 0.0183265
311 1 6.87154 -15.2761 -3.60019 -3.53851 0.00436646
312 1 6.55189 -13.5042 -1.79269 -3.53696 0.00625104
313 1 6.21117 -11.7277 0.0148062 -3.53839 0.00238863
314 1 5.85497 -9.94718 1.82231 -3.54269 0.00182652
315 1 8.31418 -13.1558 -3.60019 -3.5396 0.00135085
316 1 7.96835 -11.3732 -1.79269 -3.53998 0.00025458
317 1 7.61473 -9.59195 0.0148063 -3.54073 0.000155909
318 1 7.26208 -7.81251 1.82231 -3.54122 0.000302268
319 1 9.72839 -11.0215 -3.60019 -3.54046 5.64675e-05
320 1 9.37765 -9.24072 -1.79269 -3.54016 1.48905e-05
321 1 9.02559 -7.46149 0.0148064 -3.54013 3.34013e-05
322 1 8.67237 -5.68194 1.82231 -3.54026 0.000128858
323 1 11.141 -8.88886 -3.60019 -3.54012 2.63749e-05
324 1 10.7885 -7.10897 -1.79269 -3.53999 3.889e-05
325 1 10.4333 -5.32887 0.0148071 -3.54018 3.87317e-05
326 1 10.0751 -3.54853 1.82231 -3.54039 5.00222e-05
327 1 12.5511 -6.75529 -3.60019 -3.54012 2.69591e-05
328 1 12.1951 -4.97512 -1.79269 -3.5402 1.60473e-05
329 1 11.837 -3.19523 0.0148071 -3.54028 1.72709e-05
330 1 11.4771 -1.41632 1.82231 -3.54014 4.89885e-05
331 1 13.9582 -4.62106 -3.60019 -3.54021 1.17458e-05
332 1 13.6003 -2.84157 -1.79269 -3.54018 1.00979e-05
333 1 13.2408 -1.06256 0.0148072 -3.54012 2.06747e-05
334 1 12.879 0.715676 1.82231 -3.54008 6.56574e-05
335 1 15.3647 -2.48759 -3.60019 -3.54018 1.09565e-05
336 1 15.0054 -0.708864 -1.79269 -3.54019 2.29522e-05
337 1 14.6446 1.06914 0.0148073 -3.54025 7.04606e-05
338 1 14.2828 2.84547 1.82231 -3.54031 0.000164162
339 1 16.7717 -0.355615 -3.60019 -3.54026 3.56944e-05
340 1 16.4125 1.42143 -1.79269 -3.54031 7.07661e-05
341 1 16.0533 3.19679 0.0148074 -3.5403 9.76319e-05
342 1 15.6949 4.9698 1.82231 -3.54018 8.61789e-05
343 1 18.1823 1.77304 -3.60019 -3.5403 5.02539e-05
344 1 17.8253 3.5475 -1.79269 -3.54025 4.63656e-05
345 1 17.469 5.32027 0.0148075 -3.54017 3.41406e-05
346 1 17.1134 7.09137 1.82231 -3.54011 2.97032e-05
347 1 19.5981 3.89822 -3.60019 -3.54023 2.22668e-05
348 1 19.2432 5.67079 -1.79269 -3.54019 1.72696e-05
349 1 18.8887 7.44213 0.0148083 -3.54019 1.93387e-05
350 1 18.5347 9.21215 1.82231 -3.5402 2.62896e-05
351 1 21.0175 6.02151 -3.60019 -3.54022 1.09193e-05
352 1 20.664 7.79284 -1.79269 -3.54023 1.23912e-05
353 1 20.3112 9.56305 0.0148085 -3.54022 1.44704e-05
354 1 19.9591 11.332 1.82231 -3.54018 1.50609e-05
355 1 22.4393 8.14376 -3.60019 -3.54023 6.20879e-06
356 1 22.0873 9.91414 -1.79269 -3.54021 6.59363e-06
357 1 21.7358 11.6837 0.0148086 -3.54016 1.05428e-05
358 1 21.3847 13.4526 1.82231 -3.54011 2.11719e-05
359 1 23.8627 10.2658 -3.60019 -3.54019 4.55435e-06
360 1 23.5114 12.0359 -1.79269 -3.54016 1.0595e-05
361 1 23.16 13.8058 0.0148087 -3.54013 1.94134e-05
362 1 22.8082 15.5757 1.82231 -3.54012 2.57579e-05
363 1 25.2858 12.3888 -3.60019 -3.54017 1.03506e-05
364 1 24.934 14.1596 -1.79269 -3.54016 1.52662e-05
365 1 24.5816 15.9304 0.0148088 -3.54016 1.72329e-05
366 1 24.2285 17.7015 1.82231 -3.54016 1.56984e-05
367 1 26.707 14.5137 -3.60019 -3.54018 1.08638e-05
368 1 26.354 16.2853 -1.79269 -3.54018 1.08712e-05
369 1 26.0003 18.0572 0.0148089 -3.54018 9.41184e-06
370 1 28.1258 16.6403 -3.60019 -3.54019 6.58576e-06
371 1 27.7717 18.4127 -1.79269 -3.54019 5.49338e-06
372 1 3.60446 -17.659 1.82231 -3.54165 0.0690417
373 1 5.38637 -17.3627 0.0148062 -3.54416 0.0122055
374 1 5.08212 -15.5971 1.82231 -3.53551 0.00812084
375 1 7.18522 -17.0431 -1.79269 -3.54015 0.00216256
376 1 6.87154 -15.2761 0.0148063 -3.53851 0.00436646
377 1 6.55189 -13.5042 1.82231 -3.53696 0.00625104
378 1 8.97606 -16.7035 -3.60019 -3.53917 0.00154255
379 1 8.6485 -14.934 -1.79269 -3.53928 0.00256294
380 1 8.31418 -13.1558 0.0148063 -3.5396 0.00135085
381 1 7.96835 -11.3732 1.82231 -3.53998 0.00025458
382 1 10.4194 -14.5813 -3.60019 -3.53988 0.000928514
383 1 10.0762 -12.8031 -1.79269 -3.5404 0.000341073
384 1 9.72839 -11.0215 0.0148064 -3.54046 5.64675e-05
385 1 9.37765 -9.24072 1.82231 -3.54016 1.48905e-05
386 1 11.841 -12.448 -3.60019 -3.54045 0.000142191
387 1 11.4917 -10.6688 -1.79269 -3.5404 5.9221e-05
388 1 11.141 -8.88886 0.0148071 -3.54012 2.63749e-05
389 1 10.7885 -7.10897 1.82231 -3.53999 3.889e-05
390 1 13.2569 -10.3141 -3.60019 -3.54029 6.13926e-05
391 1 12.9049 -8.53514 -1.79269 -3.54017 4.24023e-05
392 1 12.5511 -6.75529 0.0148072 -3.54012 2.69591e-05
393 1 12.1951 -4.97512 1.82231 -3.5402 1.60473e-05
394 1 14.6695 -8.1798 -3.60019 -3.54022 3.7316e-05
395 1 14.3146 -6.40068 -1.79269 -3.54021 2.14296e-05
396 1 13.9582 -4.62106 0.0148073 -3.54021 1.17458e-05
397 1 13.6003 -2.84157 1.82231 -3.54018 1.00979e-05
398 1 16.0794 -6.04532 -3.60019 -3.54024 1.85741e-05
399 1 15.7226 -4.26654 -1.79269 -3.54021 1.20462e-05
400 1 15.3647 -2.48759 0.0148074 -3.54018 1.09565e-05
401 1 15.0054 -0.708864 1.82231 -3.54019 2.29522e-05
402 1 17.4883 -3.91164 -3.60019 -3.54023 1.37842e-05
403 1 17.1304 -2.13353 -1.79269 -3.54023 1.75558e-05
404 1 16.7717 -0.355615 0.0148075 -3.54026 3.56944e-05
405 1 16.4125 1.42143 1.82231 -3.54031 7.07661e-05
406 1 18.8978 -1.77958 -3.60019 -3.54027 2.46704e-05
407 1 18.5399 -0.00283019 -1.79269 -3.5403 3.90289e-05
408 1 18.1823 1.77304 0.0148076 -3.5403 5.02539e-05
409 1 17.8253 3.5475 1.82231 -3.54025 4.63656e-05
410 1 20.3099 0.349699 -3.60019 -3.54029 3.13793e-05
411 1 19.9537 2.12448 -1.79269 -3.54027 2.96831e-05
412 1 19.5981 3.89822 0.0148084 -3.54023 2.22668e-05
413 1 19.2432 5.67079 1.82231 -3.54019 1.72696e-05
414 1 21.726 2.47607 -3.60019 -3.54025 1.73706e-05
415 1 21.3714 4.24921 -1.79269 -3.54023 1.27105e-05
416 1 21.0175 6.02151 0.0148085 -3.54022 1.09193e-05
417 1 20.664 7.79284 1.82231 -3.54023 1.23912e-05
418 1 23.1452 4.60055 -3.60019 -3.54024 8.14973e-06
419 1 22.792 6.37253 -1.79269 -3.54024 6.73171e-06
420 1 22.4393 8.14376 0.0148086 -3.54023 6.20879e-06
421 1 22.0873 9.91414 1.82231 -3.54021 6.59363e-06
422 1 24.5666 6.72396 -3.60019 -3.54024 3.43281e-06
423 1 24.2144 8.49513 -1.79269 -3.54022 2.75821e-06
424 1 23.8627 10.2658 0.0148087 -3.54019 4.55435e-06
425 1 23.5114 12.0359 1.82231 -3.54016 1.0595e-05
426 1 25.9891 8.8471 -3.60019 -3.54021 2.17669e-06
427 1 25.6375 10.618 -1.79269 -3.54019 5.16191e-06
428 1 25.2858 12.3888 0.0148089 -3.54017 1.03506e-05
429 1 24.934 14.1596 1.82231 -3.54016 1.52662e-05
430 1 27.4115 10.971 -3.60019 -3.54019 5.75578e-06
431 1 27.0594 12.7423 -1.79269 -3.54018 8.94171e-06
432 1 26.707 14.5137 0.014809 -3.54018 1.08638e-05
433 1 26.354 16.2853 1.82231 -3.54018 1.08712e-05
434 1 28.8323 13.0962 -3.60019 -3.54019 6.94499e-06
435 1 28.4794 14.8682 -1.79269 -3.54019 7.20637e-06
436 1 28.1258 16.6403 0.0148091 -3.54019 6.58576e-06
437 1 27.7717 18.4127 1.82231 -3.54019 5.49338e-06
438 1 30.2512 15.2229 -3.60019 -3.5402 4.50531e-06
439 1 29.8973 16.9954 -1.79269 -3.5402 3.89372e-06
440 1 31.6685 17.3505 -3.60019 -3.54021 2.34639e-06
441 1 7.18522 -17.0431 1.82231 -3.54015 0.00216256
442 1 8.97606 -16.7035 0.0148064 -3.53917 0.00154255
443 1 8.6485 -14.934 1.82231 -3.53928 0.00256294
444 1 11.0947 -18.119 -3.60019 -3.53948 0.000415749
445 1 10.758 -16.3532 -1.79269 -3.53938 0.000998643
446 1 10.4194 -14.5813 0.0148064 -3.53988 0.000928514
447 1 10.0762 -12.8031 1.82231 -3.5404 0.000341073
448 1 12.5342 -15.9975 -3.60019 -3.5398 0.000447434
449 1 12.1888 -14.2248 -1.79269 -3.54017 0.000291623
450 1 11.841 -12.448 0.0148071 -3.54045 0.000142191
451 1 11.4917 -10.6688 1.82231 -3.5404 5.9221e-05
452 1 13.9584 -13.867 -3.60019 -3.54024 0.000106135
453 1 13.608 -12.0916 -1.79269 -3.54033 7.78472e-05
454 1 13.2569 -10.3141 0.0148072 -3.54029 6.13926e-05
455 1 12.9049 -8.53514 1.82231 -3.54017 4.24023e-05
456 1 15.376 -11.7341 -3.60019 -3.54025 4.70639e-05
457 1 15.0232 -9.95777 -1.79269 -3.54024 4.71972e-05
458 1 14.6695 -8.1798 0.0148073 -3.54022 3.7316e-05
459 1 14.3146 -6.40068 1.82231 -3.54021 2.14296e-05
460 1 16.7902 -9.60051 -3.60019 -3.54023 2.95402e-05
461 1 16.4352 -7.82347 -1.79269 -3.54024 2.6066e-05
462 1 16.0794 -6.04532 0.0148074 -3.54024 1.85741e-05
463 1 15.7226 -4.26654 1.82231 -3.54021 1.20462e-05
464 1 18.202 -7.46665 -3.60019 -3.54024 1.66491e-05
465 1 17.8455 -5.68948 -1.79269 -3.54024 1.52627e-05
466 1 17.4883 -3.91164 0.0148075 -3.54023 1.37842e-05
467 1 17.1304 -2.13353 1.82231 -3.54023 1.75558e-05
468 1 19.6128 -5.33344 -3.60019 -3.54024 1.26829e-05
469 1 19.2554 -3.55661 -1.79269 -3.54025 1.62716e-05
470 1 18.8978 -1.77958 0.0148083 -3.54027 2.46704e-05
471 1 18.5399 -0.00283019 1.82231 -3.5403 3.90289e-05
472 1 21.0239 -3.20169 -3.60019 -3.54027 1.79139e-05
473 1 20.6668 -1.42583 -1.79269 -3.54029 2.57618e-05
474 1 20.3099 0.349699 0.0148085 -3.54029 3.13793e-05
475 1 19.9537 2.12448 1.82231 -3.54027 2.96831e-05
476 1 22.4373 -1.07224 -3.60019 -3.54028 2.1282e-05
477 1 22.0813 0.702197 -1.79269 -3.54028 2.14356e-05
478 1 21.726 2.47607 0.0148086 -3.54025 1.73706e-05
479 1 21.3714 4.24921 1.82231 -3.54023 1.27105e-05
480 1 23.8536 1.0548 -3.60019 -3.54026 1.38419e-05
481 1 23.4991 2.82794 -1.79269 -3.54025 1.08229e-05
482 1 23.1452 4.60055 0.0148087 -3.54024 8.14973e-06
483 1 22.792 6.37253 1.82231 -3.54024 6.73171e-06
484 1 25.2727 3.1801 -3.60019 -3.54025 6.79314e-06
485 1 24.9193 4.95226 -1.79269 -3.54024 4.94872e-06
486 1 24.5666 6.72396 0.0148088 -3.54024 3.43281e-06
487 1 24.2144 8.49513 1.82231 -3.54022 2.75821e-06
488 1 26.6935 5.30439 -3.60019 -3.54024 2.61274e-06
489 1 26.3411 7.0759 -1.79269 -3.54023 1.70538e-06
490 1 25.9891 8.8471 0.0148089 -3.54021 2.17669e-06
491 1 25.6375 10.618 1.82231 -3.54019 5.16191e-06
492 1 28.1154 7.42839 -3.60019 -3.54021 1.41071e-06
493 1 27.7634 9.1997 -1.79269 -3.5402 2.85861e-06
494 1 27.4115 10.971 0.014809 -3.54019 5.75578e-06
495 1 27.0594 12.7423 1.82231 -3.54018 8.94171e-06
496 1 29.5371 9.5529 -3.60019 -3.5402 3.53118e-06
497 1 29.1848 11.3245 -1.79269 -3.54019 5.57698e-06
498 1 28.8323 13.0962 0.0148092 -3.54019 6.94499e-06
499 1 28.4794 14.8682 1.82231 -3.54019 7.20637e-06
500 1 30.9577 11.6785 -3.60019 -3.5402 4.72952e-06
501 1 30.6047 13.4505 -1.79269 -3.5402 4.88085e-06
502 1 30.2512 15.2229 0.0148093 -3.5402 4.50531e-06
503 1 29.8973 16.9954 1.82231 -3.5402 3.89372e-06
504 1 32.3767 13.8052 -3.60019 -3.5402 3.07248e-06
505 1 32.0228 15.5777 -1.79269 -3.5402 2.74428e-06
506 1 31.6685 17.3505 0.0148094 -3.54021 2.34639e-06
507 1 33.7943 15.9327 -3.60019 -3.54021 1.84858e-06
508 1 33.4397 17.7056 -1.79269 -3.54022 1.49413e-06
509 1 35.2108 18.0607 -3.60019 -3.54023 8.70681e-07
510 1 11.0947 -18.119 0.0148071 -3.53948 0.000415749
511 1 10.758 -16.3532 1.82231 -3.53938 0.000998643
512 1 12.8773 -17.7658 -1.79269 -3.53965 0.000369736
513 1 12.5342 -15.9975 0.0148072 -3.5398 0.000447434
514 1 12.1888 -14.2248 1.82231 -3.54017 0.000291623
515 1 14.6553 -17.4094 -3.60019 -3.53989 0.000213444
516 1 14.3076 -15.6398 -1.79269 -3.54006 0.000172824
517 1 13.9584 -13.867 0.0148073 -3.54024 0.000106135
518 1 13.608 -12.0916 1.82231 -3.54033 7.78472e-05
519 1 16.0799 -15.2813 -3.60019 -3.54016 6.96679e-05
520 1 15.7283 -13.5087 -1.79269 -3.54023 4.94044e-05
521 1 15.376 -11.7341 0.0148074 -3.54025 4.70639e-05
522 1 15.0232 -9.95777 1.82231 -3.54024 4.71972e-05
523 1 17.4984 -13.1502 -3.60019 -3.54021 2.6698e-05
524 1 17.1446 -11.3761 -1.79269 -3.54022 2.80413e-05
525 1 16.7902 -9.60051 0.0148075 -3.54023 2.95402e-05
526 1 16.4352 -7.82347 1.82231 -3.54024 2.6066e-05
527 1 18.9135 -11.0179 -3.60019 -3.54021 1.52583e-05
528 1 18.558 -9.24287 -1.79269 -3.54023 1.64336e-05
529 1 18.202 -7.46665 0.0148076 -3.54024 1.66491e-05
530 1 17.8455 -5.68948 1.82231 -3.54024 1.52627e-05
531 1 20.3264 -8.88523 -3.60019 -3.54023 8.60962e-06
532 1 19.9698 -7.10972 -1.79269 -3.54024 1.04963e-05
533 1 19.6128 -5.33344 0.0148084 -3.54024 1.26829e-05
534 1 19.2554 -3.55661 1.82231 -3.54025 1.62716e-05
535 1 21.7384 -6.75295 -3.60019 -3.54024 7.37897e-06
536 1 21.3812 -4.9775 -1.79269 -3.54025 1.16474e-05
537 1 21.0239 -3.20169 0.0148085 -3.54027 1.79139e-05
538 1 20.6668 -1.42583 1.82231 -3.54029 2.57618e-05
539 1 23.1508 -4.62185 -3.60019 -3.54026 1.12121e-05
540 1 22.7938 -2.84701 -1.79269 -3.54027 1.69309e-05
541 1 22.4373 -1.07224 0.0148086 -3.54028 2.1282e-05
542 1 22.0813 0.702197 1.82231 -3.54028 2.14356e-05
543 1 24.5649 -2.49259 -3.60019 -3.54027 1.38201e-05
544 1 24.2089 -0.718749 -1.79269 -3.54027 1.5266e-05
545 1 23.8536 1.0548 0.0148087 -3.54026 1.38419e-05
546 1 23.4991 2.82794 1.82231 -3.54025 1.08229e-05
547 1 25.9814 -0.365289 -3.60019 -3.54025 1.01593e-05
548 1 25.6267 1.40756 -1.79269 -3.54025 8.75112e-06
549 1 25.2727 3.1801 0.0148089 -3.54025 6.79314e-06
550 1 24.9193 4.95226 1.82231 -3.54024 4.94872e-06
551 1 27.4002 1.7605 -3.60019 -3.54024 5.2488e-06
552 1 27.0466 3.53258 -1.79269 -3.54024 3.91331e-06
553 1 26.6935 5.30439 0.014809 -3.54024 2.61274e-06
554 1 26.3411 7.0759 1.82231 -3.54023 1.70538e-06
555 1 28.8206 3.88537 -3.60019 -3.54023 2.00082e-06
556 1 28.4678 5.65696 -1.79269 -3.54023 1.36759e-06
557 1 28.1154 7.42839 0.0148091 -3.54021 1.41071e-06
558 1 27.7634 9.1997 1.82231 -3.5402 2.85861e-06
559 1 30.2419 6.00998 -3.60019 -3.54021 9.94561e-07
560 1 29.8894 7.78143 -1.79269 -3.54021 1.78073e-06
561 1 29.5371 9.5529 0.0148092 -3.5402 3.53118e-06
562 1 29.1848 11.3245 1.82231 -3.54019 5.57698e-06
563 1 31.6631 8.13494 -3.60019 -3.5402 2.25456e-06
564 1 31.3104 9.9066 -1.79269 -3.5402 3.76542e-06
565 1 30.9577 11.6785 0.0148093 -3.5402 4.72952e-06
566 1 30.6047 13.4505 1.82231 -3.5402 4.88085e-06
567 1 33.0833 10.2607 -3.60019 -3.54021 3.4651e-06
568 1 32.7301 12.0328 -1.79269 -3.5402 3.42131e-06
569 1 32.3767 13.8052 0.0148094 -3.5402 3.07248e-06
570 1 32.0228 15.5777 1.82231 -3.5402 2.74428e-06
571 1 34.5022 12.3874 -3.60019 -3.5402 1.95736e-06
572 1 34.1484 14.1599 -1.79269 -3.5402 1.83286e-06
573 1 33.7943 15.9327 0.0148094 -3.54021 1.84858e-06
574 1 33.4397 17.7056 1.82231 -3.54022 1.49413e-06
575 1 35.9201 14.5148 -3.60019 -3.54021 1.44847e-06
576 1 35.5656 16.2876 -1.79269 -3.54022 1.57334e-06
577 1 35.2108 18.0607 0.0148095 -3.54023 8.70681e-07
578 1 37.337 16.6426 -3.60019 -3.54024 1.37962e-06