ITEM: TIMESTEP
0
ITEM: NUMBER OF ATOMS
2504
ITEM: BOX BOUNDS xy xz yz mm pp pp
-5.5498871899999997e+01 5.5498871899999997e+01 0.0000000000000000e+00
-1.8432957300000002e+01 1.8432957300000002e+01 0.0000000000000000e+00
-3.6150000000000002e+00 3.6150000000000002e+00 0.0000000000000000e+00
ITEM: ATOMS id type x y z c_eng c_csym
1 1 0.638973 16.7083 -3.61441 -3.44587 3.73391
2 1 0.284089 -18.3498 -1.80691 -3.28999 9.23618
3 1 1.02632 13.0065 -3.61441 -3.4771 0.494802
4 1 0.896239 14.7522 -1.80691 -3.50362 0.598206
5 1 0.638973 16.7083 0.000589144 -3.44587 3.73391
6 1 0.284089 -18.3498 1.80809 -3.28999 9.23618
7 1 2.61397 15.158 -3.61441 -3.54263 0.123767
8 1 2.29954 16.9834 -1.80691 -3.52451 0.072245
9 1 3.99544 17.3604 -3.61441 -3.54677 0.0277687
10 1 0.633839 7.48589 -3.61441 -3.45143 3.58108
11 1 0.278826 9.29094 -1.80691 -3.29157 9.15922
12 1 1.89657 9.65928 -3.61441 -3.46121 0.671018
13 1 1.39606 11.4086 -1.80691 -3.43321 0.729406
14 1 1.02632 13.0065 0.000589481 -3.4771 0.494802
15 1 0.896239 14.7522 1.80809 -3.50362 0.598206
16 1 3.27246 11.7188 -3.61441 -3.51778 0.0696827
17 1 2.95804 13.4132 -1.80691 -3.50821 0.0963558
18 1 2.61397 15.158 0.00058963 -3.54263 0.123767
19 1 2.29954 16.9834 1.80809 -3.52451 0.072245
20 1 4.74421 13.7964 -3.61441 -3.53201 0.0183529
21 1 4.37758 15.5602 -1.80691 -3.5383 0.00886745
22 1 3.99544 17.3604 0.000589798 -3.54677 0.0277687
23 1 6.13216 15.9416 -3.61441 -3.54054 0.00239726
24 1 5.75644 17.7181 -1.80691 -3.54447 0.00957153
25 1 7.54063 18.0675 -3.61441 -3.54073 0.00135536
26 1 1.03129 3.788 -3.61441 -3.47899 0.48425
27 1 0.895213 5.53474 -1.80691 -3.50596 0.565424
28 1 0.633839 7.48589 0.000589144 -3.45143 3.58108
29 1 0.278826 9.29094 1.80809 -3.29159 9.15922
30 1 2.61381 5.94077 -3.61441 -3.54266 0.118584
31 1 2.29741 7.76461 -1.80691 -3.52459 0.0694032
32 1 1.89657 9.65928 0.000589683 -3.46121 0.671018
33 1 1.39606 11.4086 1.80809 -3.43321 0.729406
34 1 3.99428 8.14286 -3.61441 -3.54674 0.0269476
35 1 3.61992 9.95144 -1.80691 -3.54398 0.0520743
36 1 3.27246 11.7188 0.000589856 -3.51778 0.0696827
37 1 2.95804 13.4132 1.80809 -3.50821 0.0963558
38 1 5.40406 10.2722 -3.61441 -3.54336 0.0057324
39 1 5.08206 12.034 -1.80691 -3.53456 0.0105928
40 1 4.74421 13.7964 0.000590005 -3.53201 0.0183529
41 1 4.37758 15.5602 1.80809 -3.5383 0.00886745
42 1 6.85614 12.383 -3.61441 -3.53862 0.00357591
43 1 6.50433 14.1605 -1.80691 -3.53824 0.00223573
44 1 6.13216 15.9416 0.000590073 -3.54054 0.00239726
45 1 5.75644 17.7181 1.80809 -3.54447 0.00957153
46 1 8.26289 14.5206 -3.61441 -3.54084 0.000386512
47 1 7.89882 16.2983 -1.80691 -3.54122 0.00189291
48 1 7.54063 18.0675 0.000590244 -3.54073 0.00135536
49 1 9.67415 16.6484 -3.61441 -3.54067 0.000393407
50 1 9.32382 18.4167 -1.80691 -3.53948 0.00018991
51 1 0.634539 -1.73135 -3.61441 -3.45215 3.56343
52 1 0.279904 0.0729727 -1.80691 -3.29241 9.13706
53 1 1.90089 0.439697 -3.61441 -3.46264 0.662546
54 1 1.40266 2.18846 -1.80691 -3.43431 0.718234
55 1 1.03129 3.788 0.000589481 -3.47899 0.48425
56 1 0.895213 5.53474 1.80809 -3.50593 0.565424
57 1 3.27651 2.50071 -3.61441 -3.51817 0.0680443
58 1 2.9598 4.19621 -1.80691 -3.50911 0.0927906
59 1 2.61381 5.94077 0.00058963 -3.54266 0.118584
60 1 2.29741 7.76461 1.80809 -3.52459 0.0694032
61 1 4.74528 4.57995 -3.61441 -3.53212 0.0178263
62 1 4.37755 6.34353 -1.80691 -3.53829 0.00851045
63 1 3.99428 8.14286 0.000589798 -3.54674 0.0269476
64 1 3.61992 9.95144 1.80809 -3.54398 0.0520743
65 1 6.13215 6.72536 -3.61441 -3.54053 0.0024141
66 1 5.7556 8.50153 -1.80691 -3.54441 0.00939646
67 1 5.40406 10.2722 0.000590062 -3.54336 0.0057324
68 1 5.08206 12.034 1.80809 -3.53456 0.0105928
69 1 7.53978 8.85161 -3.61441 -3.5407 0.00133012
70 1 7.1955 10.6142 -1.80691 -3.5393 0.00139771
71 1 6.85614 12.383 0.000590243 -3.53862 0.00357591
72 1 6.50433 14.1605 1.80809 -3.53824 0.00223573
73 1 8.97436 10.9689 -3.61441 -3.53911 0.000837023
74 1 8.62237 12.7417 -1.80691 -3.53989 0.000636268
75 1 8.26289 14.5206 0.000590312 -3.54084 0.000386512
76 1 7.89882 16.2983 1.80809 -3.54122 0.00189291
77 1 10.3891 13.1005 -3.61441 -3.54051 6.96645e-05
78 1 10.0302 14.8757 -1.80691 -3.54108 0.000390327
79 1 9.67415 16.6484 0.00059048 -3.54067 0.000393407
80 1 9.32382 18.4167 1.80809 -3.53948 0.00018991
81 1 11.8035 15.2287 -3.61441 -3.54058 0.000105999
82 1 11.4509 16.9995 -1.80691 -3.54011 3.19574e-05
83 1 13.2255 17.3529 -3.61441 -3.54 3.4645e-05
84 1 1.03315 -5.42698 -3.61441 -3.47834 0.486792
85 1 0.896086 -3.6817 -1.80691 -3.50638 0.565071
86 1 0.634539 -1.73135 0.000589144 -3.45215 3.56343
87 1 0.279904 0.0729727 1.80809 -3.29243 9.13706
88 1 2.61592 -3.27484 -3.61441 -3.54287 0.117857
89 1 2.2996 -1.4527 -1.80691 -3.52523 0.0687209
90 1 1.90089 0.439697 0.000589683 -3.46264 0.662545
91 1 1.40266 2.18846 1.80809 -3.43434 0.718234
92 1 3.99823 -1.07438 -3.61441 -3.54684 0.0259851
93 1 3.62457 0.733128 -1.80691 -3.54392 0.0493414
94 1 3.27651 2.50071 0.000589856 -3.51817 0.0680443
95 1 2.9598 4.19621 1.80809 -3.50911 0.0927906
96 1 5.40782 1.05536 -3.61441 -3.54334 0.00537972
97 1 5.0845 2.81736 -1.80691 -3.5347 0.0102159
98 1 4.74528 4.57995 0.000590005 -3.53212 0.0178263
99 1 4.37755 6.34353 1.80809 -3.53829 0.00851045
100 1 6.85791 3.16712 -3.61441 -3.53867 0.00343224
101 1 6.50514 4.94449 -1.80691 -3.53827 0.00218426
102 1 6.13215 6.72536 0.000590073 -3.54053 0.0024141
103 1 5.7556 8.50153 1.80809 -3.54441 0.00939646
104 1 8.26351 5.30501 -3.61441 -3.54084 0.000393199
105 1 7.89873 7.0826 -1.80691 -3.54121 0.00189548
106 1 7.53978 8.85161 0.000590244 -3.5407 0.00133012
107 1 7.1955 10.6142 1.80809 -3.5393 0.00139771
108 1 9.67389 7.43311 -3.61441 -3.54065 0.000392099
109 1 9.32281 9.20133 -1.80691 -3.53947 0.000188093
110 1 8.97436 10.9689 0.000590427 -3.53911 0.000837023
111 1 8.62237 12.7417 1.80809 -3.53989 0.000636268
112 1 11.0991 9.55461 -3.61441 -3.53962 0.000166379
113 1 10.746 11.3263 -1.80691 -3.53976 0.000177079
114 1 10.3891 13.1005 0.00059056 -3.54051 6.96645e-05
115 1 10.0302 14.8757 1.80809 -3.54108 0.000390327
116 1 12.5161 11.6828 -3.61441 -3.54024 1.30783e-05
117 1 12.1593 13.4563 -1.80691 -3.54056 7.66127e-05
118 1 11.8035 15.2287 0.00059079 -3.54058 0.000105999
119 1 11.4509 16.9995 1.80809 -3.54011 3.19574e-05
120 1 13.932 13.8103 -3.61441 -3.54038 2.78295e-05
121 1 13.5781 15.5818 -1.80691 -3.54021 8.5205e-06
122 1 13.2255 17.3529 0.000591044 -3.54 3.4645e-05
123 1 15.3519 15.9357 -3.61441 -3.54011 6.64108e-06
124 1 14.9984 17.7075 -1.80691 -3.54009 1.52183e-05
125 1 16.7704 18.0625 -3.61441 -3.54019 1.99336e-06
126 1 0.641765 -10.9421 -3.61441 -3.44679 3.70661
127 1 0.289033 -9.13622 -1.80691 -3.29097 9.19297
128 1 1.90693 -8.77223 -3.61441 -3.46094 0.680546
129 1 1.40731 -7.02335 -1.80691 -3.43186 0.734873
130 1 1.03315 -5.42698 0.000589481 -3.47834 0.486792
131 1 0.896086 -3.6817 1.80809 -3.50635 0.565071
132 1 3.28062 -6.71245 -3.61441 -3.51801 0.0710513
133 1 2.96296 -5.01751 -1.80691 -3.50885 0.0929056
134 1 2.61592 -3.27484 0.00058963 -3.54287 0.117857
135 1 2.2996 -1.4527 1.80809 -3.52524 0.0687209
136 1 4.74878 -4.63463 -3.61441 -3.53206 0.0180892
137 1 4.38102 -2.87199 -1.80691 -3.53828 0.00821827
138 1 3.99823 -1.07438 0.000589824 -3.54684 0.0259851
139 1 3.62457 0.733128 1.80809 -3.54392 0.0493414
140 1 6.1362 -2.49065 -3.61441 -3.54043 0.00230905
141 1 5.75987 -0.715063 -1.80691 -3.54431 0.00873198
142 1 5.40782 1.05536 0.000590062 -3.54334 0.00537972
143 1 5.0845 2.81736 1.80809 -3.5347 0.0102159
144 1 7.54341 -0.364545 -3.61441 -3.54066 0.00122383
145 1 7.19835 1.39821 -1.80691 -3.53933 0.00132645
146 1 6.85791 3.16712 0.000590243 -3.53867 0.00343224
147 1 6.50514 4.94449 1.80809 -3.53827 0.00218426
148 1 8.97651 1.75327 -3.61441 -3.53912 0.00080265
149 1 8.62375 3.52613 -1.80691 -3.5399 0.000601612
150 1 8.26351 5.30501 0.000590312 -3.54084 0.000393199
151 1 7.89873 7.0826 1.80809 -3.54121 0.00189548
152 1 10.3901 3.88508 -3.61441 -3.5405 6.85473e-05
153 1 10.0306 5.66038 -1.80691 -3.54107 0.00039101
154 1 9.67389 7.43311 0.00059048 -3.54065 0.000392099
155 1 9.32281 9.20133 1.80809 -3.53947 0.000188093
156 1 11.8036 6.01353 -3.61441 -3.54056 0.000106293
157 1 11.4504 7.78438 -1.80691 -3.5401 3.0202e-05
158 1 11.0991 9.55461 0.000590689 -3.53962 0.000166379
159 1 10.746 11.3263 1.80809 -3.53976 0.000177079
160 1 13.2248 8.13786 -3.61441 -3.53999 2.99216e-05
161 1 12.8714 9.90975 -1.80691 -3.53998 4.7087e-05
162 1 12.5161 11.6828 0.00059089 -3.54024 1.30783e-05
163 1 12.1593 13.4563 1.80809 -3.54056 7.66127e-05
164 1 14.6428 10.2651 -3.61441 -3.54022 3.45887e-06
165 1 14.2873 12.0379 -1.80691 -3.54036 1.46845e-05
166 1 13.932 13.8103 0.00059111 -3.54038 2.78295e-05
167 1 13.5781 15.5818 1.80809 -3.54021 8.5205e-06
168 1 16.0597 12.3922 -3.61441 -3.54031 7.04997e-06
169 1 15.7055 14.1641 -1.80691 -3.54023 2.80595e-06
170 1 15.3519 15.9357 0.00059143 -3.54011 6.64108e-06
171 1 14.9984 17.7075 1.80809 -3.54009 1.52183e-05
172 1 17.4786 14.5182 -3.61441 -3.54017 1.27433e-06
173 1 17.1247 16.2902 -1.80691 -3.54015 3.96955e-06
174 1 16.7704 18.0625 0.000591756 -3.54019 1.99336e-06
175 1 18.8971 16.6449 -3.61441 -3.5402 7.7489e-07
176 1 18.5425 18.4172 -1.80691 -3.54024 1.71345e-07
177 1 1.02734 -14.6409 -3.61441 -3.47628 0.504635
178 1 0.898122 -12.8958 -1.80691 -3.50446 0.593229
179 1 0.641765 -10.9421 0.000589144 -3.44679 3.70661
180 1 0.289033 -9.13622 1.80809 -3.29098 9.19297
181 1 2.61729 -12.4913 -3.61441 -3.54277 0.123939
182 1 2.30414 -10.6674 -1.80691 -3.52499 0.0718712
183 1 1.90693 -8.77223 0.000589683 -3.46094 0.680546
184 1 1.40731 -7.02335 1.80809 -3.43189 0.734873
185 1 4.00097 -10.2906 -3.61441 -3.54685 0.026737
186 1 3.62842 -8.48129 -1.80691 -3.54398 0.0500816
187 1 3.28062 -6.71245 0.000589856 -3.51801 0.0710513
188 1 2.96296 -5.01751 1.80809 -3.50885 0.0929056
189 1 5.41044 -8.16051 -3.61441 -3.54349 0.0055273
190 1 5.08776 -6.39749 -1.80691 -3.53479 0.010243
191 1 4.74878 -4.63463 0.000590005 -3.53206 0.0180892
192 1 4.38102 -2.87199 1.80809 -3.53828 0.00821827
193 1 6.86065 -6.049 -3.61441 -3.53872 0.00338615
194 1 6.50859 -4.27128 -1.80691 -3.53825 0.00224149
195 1 6.1362 -2.49065 0.000590073 -3.54043 0.00230905
196 1 5.75987 -0.715063 1.80809 -3.54431 0.00873198
197 1 8.26672 -3.91159 -3.61441 -3.54082 0.00036549
198 1 7.90245 -2.13375 -1.80691 -3.54115 0.00177372
199 1 7.54341 -0.364545 0.000590244 -3.54066 0.00122383
200 1 7.19835 1.39821 1.80809 -3.53933 0.00132645
201 1 9.67687 -1.7834 -3.61441 -3.54064 0.000356978
202 1 9.32557 -0.0146771 -1.80691 -3.53948 0.00018598
203 1 8.97651 1.75327 0.000590427 -3.53912 0.00080265
204 1 8.62375 3.52613 1.80809 -3.5399 0.000601612
205 1 11.101 0.338594 -3.61441 -3.53963 0.000162741
206 1 10.7475 2.11066 -1.80691 -3.53976 0.00016975
207 1 10.3901 3.88508 0.000590586 -3.5405 6.85473e-05
208 1 10.0306 5.66038 1.80809 -3.54107 0.00039101
209 1 12.5171 2.46718 -3.61441 -3.54024 1.4042e-05
210 1 12.1599 4.24092 -1.80691 -3.54055 7.90828e-05
211 1 11.8036 6.01353 0.00059079 -3.54056 0.000106293
212 1 11.4504 7.78438 1.80809 -3.5401 3.0202e-05
213 1 13.9322 4.59496 -3.61441 -3.54038 2.9357e-05
214 1 13.5779 6.36665 -1.80691 -3.5402 8.28364e-06
215 1 13.2248 8.13786 0.000591044 -3.53999 2.99216e-05
216 1 12.8714 9.90975 1.80809 -3.53998 4.7087e-05
217 1 15.3514 6.7205 -3.61441 -3.54011 5.02443e-06
218 1 14.9975 8.49248 -1.80691 -3.5401 1.14913e-05
219 1 14.6428 10.2651 0.000591285 -3.54022 3.45887e-06
220 1 14.2873 12.0379 1.80809 -3.54036 1.46845e-05
221 1 16.7696 8.84725 -3.61441 -3.5402 1.00432e-06
222 1 16.4146 10.6198 -1.80691 -3.54028 2.63721e-06
223 1 16.0597 12.3922 0.000591546 -3.54031 7.04997e-06
224 1 15.7055 14.1641 1.80809 -3.54023 2.80595e-06
225 1 18.187 10.9742 -3.61441 -3.54026 1.71864e-06
226 1 17.8326 12.7463 -1.80691 -3.54023 9.45239e-07
227 1 17.4786 14.5182 0.000591893 -3.54017 1.27433e-06
228 1 17.1247 16.2902 1.80809 -3.54015 3.96955e-06
229 1 19.6054 13.1005 -3.61441 -3.5402 2.70877e-07
230 1 19.2513 14.8726 -1.80691 -3.54018 1.03399e-06
231 1 18.8971 16.6449 0.000592273 -3.5402 7.7489e-07
232 1 18.5425 18.4172 1.80809 -3.54024 1.71345e-07
233 1 21.0237 15.2271 -3.61441 -3.5402 3.01401e-07
234 1 20.6693 16.9995 -1.80691 -3.54022 5.41632e-08
235 1 22.4416 17.354 -3.61441 -3.54023 9.65191e-09
236 1 1.90025 -17.9854 -3.61441 -3.45921 0.695628
237 1 1.39823 -16.2358 -1.80691 -3.42965 0.754227
238 1 1.02734 -14.6409 0.000589481 -3.47628 0.504635
239 1 0.898122 -12.8958 1.80809 -3.50446 0.593229
240 1 3.27541 -15.9276 -3.61441 -3.5175 0.0724487
241 1 2.96103 -14.2341 -1.80691 -3.50798 0.0968286
242 1 2.61729 -12.4913 0.00058963 -3.54277 0.123939
243 1 2.30414 -10.6674 1.80809 -3.525 0.0718712
244 1 4.74806 -13.8521 -3.61441 -3.5319 0.0187654
245 1 4.38222 -12.0894 -1.80691 -3.53824 0.0088631
246 1 4.00097 -10.2906 0.000589824 -3.54685 0.026737
247 1 3.62842 -8.48129 1.80809 -3.54398 0.0500816
248 1 6.13708 -11.7083 -3.61441 -3.54044 0.00221025
249 1 5.76166 -9.93203 -1.80691 -3.54441 0.0088417
250 1 5.41044 -8.16051 0.000590062 -3.54349 0.0055273
251 1 5.08776 -6.39749 1.80809 -3.53479 0.010243
252 1 7.54473 -9.58193 -3.61441 -3.54071 0.00122362
253 1 7.20035 -7.81855 -1.80691 -3.5394 0.00133453
254 1 6.86065 -6.049 0.000590243 -3.53872 0.00338615
255 1 6.50859 -4.27128 1.80809 -3.53825 0.00224149
256 1 8.97824 -7.46405 -3.61441 -3.53915 0.000798516
257 1 8.6262 -5.69081 -1.80691 -3.53992 0.000612959
258 1 8.26672 -3.91159 0.000590312 -3.54082 0.00036549
259 1 7.90245 -2.13375 1.80809 -3.54115 0.00177372
260 1 10.3923 -5.33228 -3.61441 -3.5405 6.51513e-05
261 1 10.0334 -3.5566 -1.80691 -3.54105 0.0003523
262 1 9.67687 -1.7834 0.00059048 -3.54064 0.000356978
263 1 9.32557 -0.0146771 1.80809 -3.53948 0.00018598
264 1 11.8058 -3.20355 -3.61441 -3.54057 9.26269e-05
265 1 11.4526 -1.43218 -1.80691 -3.54011 2.7229e-05
266 1 11.101 0.338594 0.000590689 -3.53963 0.000162741
267 1 10.7475 2.11066 1.80809 -3.53976 0.00016975
268 1 13.2264 -1.0787 -3.61441 -3.54001 2.95008e-05
269 1 12.8727 0.693687 -1.80691 -3.53999 4.53551e-05
270 1 12.5171 2.46718 0.00059089 -3.54024 1.4042e-05
271 1 12.1599 4.24092 1.80809 -3.54055 7.90828e-05
272 1 14.6436 1.04894 -3.61441 -3.54022 3.66679e-06
273 1 14.2878 2.82222 -1.80691 -3.54037 1.6117e-05
274 1 13.9322 4.59496 0.00059111 -3.54038 2.9357e-05
275 1 13.5779 6.36665 1.80809 -3.5402 8.28364e-06
276 1 16.0599 3.17644 -3.61441 -3.54031 7.87904e-06
277 1 15.7053 4.94867 -1.80691 -3.54023 3.09936e-06
278 1 15.3514 6.7205 0.00059143 -3.54011 5.02443e-06
279 1 14.9975 8.49248 1.80809 -3.5401 1.14913e-05
280 1 17.4782 5.30267 -3.61441 -3.54018 7.3369e-07
281 1 17.1241 7.07485 -1.80691 -3.54015 2.51543e-06
282 1 16.7696 8.84725 0.000591756 -3.5402 1.00432e-06
283 1 16.4146 10.6198 1.80809 -3.54028 2.63721e-06
284 1 18.8963 7.42933 -3.61441 -3.5402 2.68569e-07
285 1 18.5417 9.2018 -1.80691 -3.54024 4.66342e-07
286 1 18.187 10.9742 0.000592094 -3.54026 1.71864e-06
287 1 17.8326 12.7463 1.80809 -3.54023 9.45239e-07
288 1 20.3141 9.55614 -3.61441 -3.54024 4.14253e-07
289 1 19.9597 11.3284 -1.80691 -3.54023 3.17602e-07
290 1 19.6054 13.1005 0.000592462 -3.5402 2.70877e-07
291 1 19.2513 14.8726 1.80809 -3.54018 1.03399e-06
292 1 21.7323 11.6827 -3.61441 -3.54021 6.99069e-08
293 1 21.378 13.4549 -1.80691 -3.5402 2.79981e-07
294 1 21.0237 15.2271 0.000592812 -3.5402 3.01401e-07
295 1 20.6693 16.9995 1.80809 -3.54022 5.41632e-08
296 1 23.1504 13.8093 -3.61441 -3.54021 1.19439e-07
297 1 22.7961 15.5816 -1.80691 -3.54022 4.26769e-08
298 1 22.4416 17.354 0.000593096 -3.54023 9.65191e-09
299 1 24.5684 15.9361 -3.61441 -3.54022 6.54923e-09
300 1 24.2139 17.7085 -1.80691 -3.54022 3.82554e-09
301 1 25.9863 18.063 -3.61441 -3.54022 9.29213e-09
302 1 1.90025 -17.9854 0.000589683 -3.45921 0.695628
303 1 1.39823 -16.2358 1.80809 -3.42965 0.754227
304 1 3.62224 -17.6958 -1.80691 -3.544 0.0530103
305 1 3.27541 -15.9276 0.000589856 -3.5175 0.0724487
306 1 2.96103 -14.2341 1.80809 -3.50798 0.0968286
307 1 5.40585 -17.3765 -3.61441 -3.54346 0.00592735
308 1 5.08491 -15.6143 -1.80691 -3.5346 0.0106524
309 1 4.74806 -13.8521 0.000590005 -3.5319 0.0187654
310 1 4.38222 -12.0894 1.80809 -3.53824 0.0088631
311 1 6.85904 -15.2666 -3.61441 -3.53863 0.00363194
312 1 6.50838 -13.4892 -1.80691 -3.5382 0.00236342
313 1 6.13708 -11.7083 0.000590073 -3.54044 0.00221025
314 1 5.76166 -9.93203 1.80809 -3.54441 0.0088417
315 1 8.26668 -13.1296 -3.61441 -3.54081 0.000343562
316 1 7.90313 -11.3516 -1.80691 -3.54117 0.00172031
317 1 7.54473 -9.58193 0.000590244 -3.54071 0.00122362
318 1 7.20035 -7.81855 1.80809 -3.5394 0.00133453
319 1 9.67745 -11.0013 -3.61441 -3.54066 0.000347523
320 1 9.32669 -9.23233 -1.80691 -3.5395 0.000177078
321 1 8.97824 -7.46405 0.000590427 -3.53915 0.000798516
322 1 8.6262 -5.69081 1.80809 -3.53992 0.000612959
323 1 11.1021 -8.87922 -3.61441 -3.53964 0.000162317
324 1 10.7491 -7.10697 -1.80691 -3.53977 0.000174139
325 1 10.3923 -5.33228 0.000590586 -3.5405 6.51513e-05
326 1 10.0334 -3.5566 1.80809 -3.54105 0.0003523
327 1 12.5185 -6.75055 -3.61441 -3.54023 1.34136e-05
328 1 12.1617 -4.97656 -1.80691 -3.54055 6.75002e-05
329 1 11.8058 -3.20355 0.00059079 -3.54057 9.26269e-05
330 1 11.4526 -1.43218 1.80809 -3.54011 2.7229e-05
331 1 13.9337 -4.62246 -3.61441 -3.54037 2.38379e-05
332 1 13.5795 -2.85039 -1.80691 -3.54021 6.47101e-06
333 1 13.2264 -1.0787 0.000591044 -3.54001 2.95008e-05
334 1 12.8727 0.693687 1.80809 -3.53999 4.53551e-05
335 1 15.3525 -2.49644 -3.61441 -3.54012 4.99234e-06
336 1 14.9985 -0.724049 -1.80691 -3.5401 1.12152e-05
337 1 14.6436 1.04894 0.000591285 -3.54022 3.66679e-06
338 1 14.2878 2.82222 1.80809 -3.54037 1.6117e-05
339 1 16.7701 -0.369228 -3.61441 -3.54021 1.06207e-06
340 1 16.415 1.4037 -1.80691 -3.54029 3.18257e-06
341 1 16.0599 3.17644 0.000591546 -3.54031 7.87904e-06
342 1 15.7053 4.94867 1.80809 -3.54023 3.09936e-06
343 1 18.1871 1.75805 -3.61441 -3.54027 2.1045e-06
344 1 17.8325 3.53047 -1.80691 -3.54024 1.17269e-06
345 1 17.4782 5.30267 0.000591893 -3.54018 7.3369e-07
346 1 17.1241 7.07485 1.80809 -3.54015 2.51543e-06
347 1 19.6051 3.88463 -3.61441 -3.54021 1.11052e-07
348 1 19.2508 5.65694 -1.80691 -3.54019 4.58363e-07
349 1 18.8963 7.42933 0.000592299 -3.5402 2.68569e-07
350 1 18.5417 9.2018 1.80809 -3.54024 4.66342e-07
351 1 21.0231 6.01132 -3.61441 -3.54021 5.44775e-08
352 1 20.6686 7.78375 -1.80691 -3.54023 8.00116e-08
353 1 20.3141 9.55614 0.000592661 -3.54024 4.14253e-07
354 1 19.9597 11.3284 1.80809 -3.54023 3.17602e-07
355 1 22.441 8.13809 -3.61441 -3.54023 9.87845e-08
356 1 22.0866 9.91042 -1.80691 -3.54023 1.01302e-07
357 1 21.7323 11.6827 0.000592993 -3.54021 6.99069e-08
358 1 21.378 13.4549 1.80809 -3.5402 2.79981e-07
359 1 23.859 10.2647 -3.61441 -3.54022 2.03128e-08
360 1 23.5048 12.037 -1.80691 -3.54021 8.00656e-08
361 1 23.1504 13.8093 0.000593281 -3.54021 1.19439e-07
362 1 22.7961 15.5816 1.80809 -3.54022 4.26769e-08
363 1 25.2772 12.3914 -3.61441 -3.54021 4.92639e-08
364 1 24.9228 14.1638 -1.80691 -3.54022 3.17211e-08
365 1 24.5684 15.9361 0.000593559 -3.54022 6.54923e-09
366 1 24.2139 17.7085 1.80809 -3.54022 3.82554e-09
367 1 26.6951 14.5182 -3.61441 -3.54022 9.19691e-09
368 1 26.3407 16.2906 -1.80691 -3.54022 4.17019e-09
369 1 25.9863 18.063 0.000593916 -3.54022 9.29213e-09
370 1 28.113 16.6451 -3.61441 -3.54022 4.31913e-09
371 1 27.7585 18.4175 -1.80691 -3.54022 1.20327e-08
372 1 3.62224 -17.6958 1.80809 -3.544 0.0530103
373 1 5.40585 -17.3765 0.000590062 -3.54346 0.00592735
374 1 5.08491 -15.6143 1.80809 -3.5346 0.0106524
375 1 7.19728 -17.0356 -1.80691 -3.53934 0.00142684
376 1 6.85904 -15.2666 0.000590243 -3.53863 0.00363194
377 1 6.50838 -13.4892 1.80809 -3.5382 0.00236342
378 1 8.97626 -16.6816 -3.61441 -3.53911 0.000866212
379 1 8.62525 -14.9087 -1.80691 -3.53988 0.000685239
380 1 8.26668 -13.1296 0.000590312 -3.54081 0.000343562
381 1 7.90313 -11.3516 1.80809 -3.54117 0.00172031
382 1 10.3917 -14.5502 -3.61441 -3.54049 6.5398e-05
383 1 10.0334 -12.7746 -1.80691 -3.54106 0.000336176
384 1 9.67745 -11.0013 0.00059048 -3.54066 0.000347523
385 1 9.32669 -9.23233 1.80809 -3.5395 0.000177078
386 1 11.8059 -12.4215 -3.61441 -3.54057 8.87569e-05
387 1 11.4532 -10.6501 -1.80691 -3.54012 2.6903e-05
388 1 11.1021 -8.87922 0.000590689 -3.53964 0.000162317
389 1 10.7491 -7.10697 1.80809 -3.53977 0.000174139
390 1 13.227 -10.2966 -3.61441 -3.54001 3.13974e-05
391 1 12.8738 -8.52417 -1.80691 -3.53999 4.8443e-05
392 1 12.5185 -6.75055 0.00059089 -3.54023 1.34136e-05
393 1 12.1617 -4.97656 1.80809 -3.54055 6.75002e-05
394 1 14.6446 -8.16883 -3.61441 -3.54022 4.34914e-06
395 1 14.2891 -6.39544 -1.80691 -3.54036 1.2543e-05
396 1 13.9337 -4.62246 0.00059111 -3.54037 2.38379e-05
397 1 13.5795 -2.85039 1.80809 -3.54021 6.47101e-06
398 1 16.0609 -6.04106 -3.61441 -3.54031 5.85606e-06
399 1 15.7065 -4.2686 -1.80691 -3.54023 2.02984e-06
400 1 15.3525 -2.49644 0.00059143 -3.54012 4.99234e-06
401 1 14.9985 -0.724049 1.80809 -3.5401 1.12152e-05
402 1 17.479 -3.91443 -3.61441 -3.54018 7.28659e-07
403 1 17.1248 -2.14196 -1.80691 -3.54016 2.50876e-06
404 1 16.7701 -0.369228 0.000591756 -3.54021 1.06207e-06
405 1 16.415 1.4037 1.80809 -3.54029 3.18257e-06
406 1 18.8967 -1.78735 -3.61441 -3.54021 2.99095e-07
407 1 18.5419 -0.0146231 -1.80691 -3.54025 6.57709e-07
408 1 18.1871 1.75805 0.000592094 -3.54027 2.1045e-06
409 1 17.8325 3.53047 1.80809 -3.54024 1.17269e-06
410 1 20.314 0.339784 -3.61441 -3.54024 5.87624e-07
411 1 19.9594 2.11227 -1.80691 -3.54023 4.61944e-07
412 1 19.6051 3.88463 0.000592462 -3.54021 1.11052e-07
413 1 19.2508 5.65694 1.80809 -3.54019 4.58363e-07
414 1 21.7319 2.46654 -3.61441 -3.54022 4.17188e-08
415 1 21.3775 4.23892 -1.80691 -3.5402 6.26473e-08
416 1 21.0231 6.01132 0.000592812 -3.54021 5.44775e-08
417 1 20.6686 7.78375 1.80809 -3.54023 8.00116e-08
418 1 23.1499 4.59327 -3.61441 -3.54021 7.19524e-09
419 1 22.7954 6.36569 -1.80691 -3.54022 1.35666e-08
420 1 22.441 8.13809 0.000593096 -3.54023 9.87845e-08
421 1 22.0866 9.91042 1.80809 -3.54023 1.01302e-07
422 1 24.5678 6.72004 -3.61441 -3.54022 2.53044e-08
423 1 24.2134 8.4924 -1.80691 -3.54022 3.21281e-08
424 1 23.859 10.2647 0.000593436 -3.54022 2.03128e-08
425 1 23.5048 12.037 1.80809 -3.54021 8.00656e-08
426 1 25.9858 8.84674 -3.61441 -3.54022 7.00893e-09
427 1 25.6315 10.6191 -1.80691 -3.54021 2.40866e-08
428 1 25.2772 12.3914 0.000593781 -3.54021 4.92639e-08
429 1 24.9228 14.1638 1.80809 -3.54022 3.17211e-08
430 1 27.4039 10.9735 -3.61441 -3.54022 2.2748e-08
431 1 27.0495 12.7458 -1.80691 -3.54022 2.27157e-08
432 1 26.6951 14.5182 0.000594102 -3.54022 9.19691e-09
433 1 26.3407 16.2906 1.80809 -3.54022 4.17019e-09
434 1 28.8218 13.1003 -3.61441 -3.54022 1.06937e-08
435 1 28.4674 14.8727 -1.80691 -3.54022 3.80222e-09
436 1 28.113 16.6451 0.00059443 -3.54022 4.31913e-09
437 1 27.7585 18.4175 1.80809 -3.54022 1.20327e-08
438 1 30.2397 15.2271 -3.61441 -3.54022 8.26468e-10
439 1 29.8853 16.9995 -1.80691 -3.54022 4.63435e-09
440 1 31.6576 17.354 -3.6144 -3.54022 1.11679e-08
441 1 7.19728 -17.0356 1.80809 -3.53934 0.00142684
442 1 8.97626 -16.6816 0.000590427 -3.53911 0.000866212
443 1 8.62525 -14.9087 1.80809 -3.53988 0.000685239
444 1 11.1002 -18.0962 -3.61441 -3.53962 0.000176656
445 1 10.7479 -16.3246 -1.80691 -3.53975 0.0001972
446 1 10.3917 -14.5502 0.00059056 -3.54049 6.5398e-05
447 1 10.0334 -12.7746 1.80809 -3.54106 0.000336176
448 1 12.5179 -15.9681 -3.61441 -3.54023 1.40225e-05
449 1 12.1615 -14.1944 -1.80691 -3.54055 6.05013e-05
450 1 11.8059 -12.4215 0.00059079 -3.54057 8.87569e-05
451 1 11.4532 -10.6501 1.80809 -3.54012 2.6903e-05
452 1 13.9337 -13.8401 -3.61441 -3.54038 2.1126e-05
453 1 13.5798 -12.0682 -1.80691 -3.54021 6.35605e-06
454 1 13.227 -10.2966 0.000591044 -3.54001 3.13974e-05
455 1 12.8738 -8.52417 1.80809 -3.53999 4.8443e-05
456 1 15.353 -11.7141 -3.61441 -3.54012 5.90953e-06
457 1 14.9992 -9.94182 -1.80691 -3.54011 1.30533e-05
458 1 14.6446 -8.16883 0.000591285 -3.54022 4.34914e-06
459 1 14.2891 -6.39544 1.80809 -3.54036 1.2543e-05
460 1 16.7709 -9.58684 -3.61441 -3.5402 1.56565e-06
461 1 16.4159 -7.81392 -1.80691 -3.54028 2.21907e-06
462 1 16.0609 -6.04106 0.000591546 -3.54031 5.85606e-06
463 1 15.7065 -4.2686 1.80809 -3.54023 2.02984e-06
464 1 18.1879 -7.45936 -3.61441 -3.54026 1.35414e-06
465 1 17.8333 -5.68682 -1.80691 -3.54024 6.82598e-07
466 1 17.479 -3.91443 0.000591893 -3.54018 7.28659e-07
467 1 17.1248 -2.14196 1.80809 -3.54016 2.50876e-06
468 1 19.6056 -5.33246 -3.61441 -3.54021 9.64057e-08
469 1 19.2512 -3.55997 -1.80691 -3.54019 5.06053e-07
470 1 18.8967 -1.78735 0.000592299 -3.54021 2.99095e-07
471 1 18.5419 -0.0146231 1.80809 -3.54025 6.57709e-07
472 1 21.0233 -3.20543 -3.61441 -3.54021 8.03969e-08
473 1 20.6687 -1.43282 -1.80691 -3.54023 1.57577e-07
474 1 20.314 0.339784 0.000592661 -3.54024 5.87624e-07
475 1 19.9594 2.11227 1.80809 -3.54023 4.61944e-07
476 1 22.4409 -1.07837 -3.61441 -3.54023 1.80757e-07
477 1 22.0863 0.694118 -1.80691 -3.54023 1.89406e-07
478 1 21.7319 2.46654 0.000592993 -3.54022 4.17188e-08
479 1 21.3775 4.23892 1.80809 -3.5402 6.26473e-08
480 1 23.8587 1.04846 -3.61441 -3.54022 3.23557e-08
481 1 23.5043 2.82087 -1.80691 -3.54021 6.86025e-09
482 1 23.1499 4.59327 0.000593281 -3.54021 7.19524e-09
483 1 22.7954 6.36569 1.80809 -3.54022 1.35666e-08
484 1 25.2766 3.17524 -3.61441 -3.54022 1.54063e-09
485 1 24.9222 4.94765 -1.80691 -3.54022 3.63837e-09
486 1 24.5678 6.72004 0.000593559 -3.54022 2.53044e-08
487 1 24.2134 8.4924 1.80809 -3.54022 3.21281e-08
488 1 26.6946 5.30202 -3.61441 -3.54022 8.13371e-09
489 1 26.3402 7.07439 -1.80691 -3.54022 1.21638e-08
490 1 25.9858 8.84674 0.000593916 -3.54022 7.00893e-09
491 1 25.6315 10.6191 1.80809 -3.54021 2.40866e-08
492 1 28.1126 7.42877 -3.61441 -3.54022 3.75432e-09
493 1 27.7582 9.20112 -1.80691 -3.54022 7.34414e-09
494 1 27.4039 10.9735 0.000594257 -3.54022 2.2748e-08
495 1 27.0495 12.7458 1.80809 -3.54022 2.27157e-08
496 1 29.5306 9.55552 -3.61441 -3.54022 1.25536e-08
497 1 29.1762 11.3279 -1.80691 -3.54022 1.93092e-08
498 1 28.8218 13.1003 0.000594569 -3.54022 1.06937e-08
499 1 28.4674 14.8727 1.80809 -3.54022 3.80222e-09
500 1 30.9485 11.6823 -3.61441 -3.54022 1.47204e-08
501 1 30.5941 13.4547 -1.80691 -3.54022 3.04986e-09
502 1 30.2397 15.2271 0.000594875 -3.54022 8.26468e-10
503 1 29.8853 16.9995 1.80809 -3.54022 4.63435e-09
504 1 32.3664 13.8092 -3.6144 -3.54021 1.3307e-09
505 1 32.012 15.5816 -1.8069 -3.54021 1.4679e-09
506 1 31.6576 17.354 0.000595111 -3.54022 1.11679e-08
507 1 33.7843 15.9361 -3.6144 -3.54022 1.32358e-08
508 1 33.4298 17.7085 -1.8069 -3.54022 3.58623e-08
509 1 35.2021 18.0629 -3.6144 -3.54023 7.20029e-08
510 1 11.1002 -18.0962 0.000590689 -3.53962 0.000176656
511 1 10.7479 -16.3246 1.80809 -3.53975 0.0001972
512 1 12.8727 -17.7412 -1.80691 -3.53998 5.57744e-05
513 1 12.5179 -15.9681 0.00059089 -3.54023 1.40225e-05
514 1 12.1615 -14.1944 1.80809 -3.54055 6.05013e-05
515 1 14.644 -17.3858 -3.61441 -3.54021 5.11976e-06
516 1 14.2888 -15.6128 -1.80691 -3.54036 9.90178e-06
517 1 13.9337 -13.8401 0.00059111 -3.54038 2.1126e-05
518 1 13.5798 -12.0682 1.80809 -3.54021 6.35605e-06
519 1 16.061 -15.2583 -3.61441 -3.54031 4.58622e-06
520 1 15.7067 -13.4861 -1.80691 -3.54023 1.68779e-06
521 1 15.353 -11.7141 0.00059143 -3.54012 5.90953e-06
522 1 14.9992 -9.94182 1.80809 -3.54011 1.30533e-05
523 1 17.4794 -13.1318 -3.61441 -3.54018 1.09327e-06
524 1 17.1253 -11.3595 -1.80691 -3.54016 3.33462e-06
525 1 16.7709 -9.58684 0.000591756 -3.5402 1.56565e-06
526 1 16.4159 -7.81392 1.80809 -3.54028 2.21907e-06
527 1 18.8973 -11.0047 -3.61441 -3.5402 5.64914e-07
528 1 18.5426 -9.23204 -1.80691 -3.54024 3.78904e-07
529 1 18.1879 -7.45936 0.000592094 -3.54026 1.35414e-06
530 1 17.8333 -5.68682 1.80809 -3.54024 6.82598e-07
531 1 20.3147 -8.87743 -3.61441 -3.54024 2.9228e-07
532 1 19.9601 -7.10492 -1.80691 -3.54023 2.22488e-07
533 1 19.6056 -5.33246 0.000592462 -3.54021 9.64057e-08
534 1 19.2512 -3.55997 1.80809 -3.54019 5.06053e-07
535 1 21.7324 -6.75044 -3.61441 -3.54021 1.34884e-08
536 1 21.3779 -4.97797 -1.80691 -3.54021 8.90905e-08
537 1 21.0233 -3.20543 0.000592812 -3.54021 8.03969e-08
538 1 20.6687 -1.43282 1.80809 -3.54023 1.57577e-07
539 1 23.1501 -4.62344 -3.61441 -3.54021 1.95398e-08
540 1 22.7955 -2.85091 -1.80691 -3.54022 4.70085e-08
541 1 22.4409 -1.07837 0.000593096 -3.54023 1.80757e-07
542 1 22.0863 0.694118 1.80809 -3.54023 1.89406e-07
543 1 24.5677 -2.49644 -3.61441 -3.54023 6.28365e-08
544 1 24.2132 -0.72397 -1.80691 -3.54022 8.37527e-08
545 1 23.8587 1.04846 0.000593436 -3.54022 3.23557e-08
546 1 23.5043 2.82087 1.80809 -3.54021 6.86025e-09
547 1 25.9855 -0.369571 -3.61441 -3.54022 2.56469e-08
548 1 25.6311 1.40284 -1.80691 -3.54022 5.37401e-09
549 1 25.2766 3.17524 0.000593781 -3.54022 1.54063e-09
550 1 24.9222 4.94765 1.80809 -3.54022 3.63837e-09
551 1 27.4034 1.75723 -3.61441 -3.54022 1.88491e-09
552 1 27.049 3.52963 -1.80691 -3.54022 2.15477e-09
553 1 26.6946 5.30202 0.000594102 -3.54022 8.13371e-09
554 1 26.3402 7.07439 1.80809 -3.54022 1.21638e-08
555 1 28.8214 3.88402 -3.61441 -3.54022 3.38462e-09
556 1 28.4669 5.6564 -1.80691 -3.54022 6.79629e-09
557 1 28.1126 7.42877 0.00059443 -3.54022 3.75432e-09
558 1 27.7582 9.20112 1.80809 -3.54022 7.34414e-09
559 1 30.2393 6.0108 -3.61441 -3.54022 4.49422e-09
560 1 29.885 7.78316 -1.80691 -3.54022 1.56915e-09
561 1 29.5306 9.55552 0.000594736 -3.54022 1.25536e-08
562 1 29.1762 11.3279 1.80809 -3.54022 1.93092e-08
563 1 31.6573 8.13757 -3.6144 -3.54022 8.30646e-09
564 1 31.303 9.90994 -1.8069 -3.54022 2.30555e-08
565 1 30.9485 11.6823 0.000594987 -3.54022 1.47204e-08
566 1 30.5941 13.4547 1.80809 -3.54022 3.04986e-09
567 1 33.0753 10.2644 -3.6144 -3.54022 3.0174e-08
568 1 32.7208 12.0368 -1.8069 -3.54022 4.18976e-09
569 1 32.3664 13.8092 0.000595186 -3.54021 1.3307e-09
570 1 32.012 15.5816 1.8081 -3.54021 1.4679e-09
571 1 34.4931 12.3913 -3.6144 -3.54021 2.00252e-08
572 1 34.1387 14.1637 -1.8069 -3.54021 1.27427e-08
573 1 33.7843 15.9361 0.000595356 -3.54022 1.32358e-08
574 1 33.4298 17.7085 1.8081 -3.54022 3.58623e-08