ITEM: TIMESTEP
0
ITEM: NUMBER OF ATOMS
2504
ITEM: BOX BOUNDS xy xz yz mm pp pp
-5.5498871899999997e+01 5.5498871899999997e+01 0.0000000000000000e+00
-1.8432957300000002e+01 1.8432957300000002e+01 0.0000000000000000e+00
-3.6150000000000002e+00 3.6150000000000002e+00 0.0000000000000000e+00
ITEM: ATOMS id type x y z c_eng c_csym
1 1 0.63513 16.7394 -3.6073 -3.44254 3.63017
2 1 0.287956 -18.3135 -1.7998 -3.28533 9.12529
3 1 1.00453 13.0292 -3.6073 -3.49087 0.371009
4 1 0.872375 14.7809 -1.7998 -3.5038 0.589126
5 1 0.63513 16.7394 0.0076972 -3.44254 3.63017
6 1 0.287956 -18.3135 1.8152 -3.28533 9.12529
7 1 2.59417 15.1695 -3.6073 -3.54159 0.120811
8 1 2.29134 17.0022 -1.7998 -3.522 0.0779359
9 1 3.9827 17.3699 -3.6073 -3.54559 0.0289493
10 1 0.568391 7.44624 -3.6073 -3.50051 1.92225
11 1 0.219537 9.22349 -1.7998 -3.3184 5.32822
12 1 1.84979 9.63033 -3.6073 -3.48323 0.387978
13 1 1.35959 11.3884 -1.7998 -3.47641 0.449703
14 1 1.00453 13.0292 0.00769743 -3.49087 0.371009
15 1 0.872375 14.7809 1.8152 -3.5038 0.589126
16 1 3.23005 11.7068 -3.6073 -3.52163 0.0469744
17 1 2.92126 13.4112 -1.7998 -3.51215 0.0764983
18 1 2.59417 15.1695 0.00769754 -3.54159 0.120811
19 1 2.29134 17.0022 1.8152 -3.522 0.0779359
20 1 4.71153 13.7902 -3.6073 -3.53286 0.0144801
21 1 4.3554 15.5594 -1.7998 -3.53815 0.0117073
22 1 3.9827 17.3699 0.00769765 -3.54559 0.0289493
23 1 6.11005 15.9373 -3.6073 -3.54085 0.00239176
24 1 5.74051 17.7192 -1.7998 -3.54477 0.0120198
25 1 7.52645 18.0628 -3.6073 -3.5412 0.00224383
26 1 1.06914 3.78615 -3.6073 -3.51189 0.249846
27 1 0.859041 5.55108 -1.7998 -3.52946 0.239
28 1 0.568391 7.44624 0.0076972 -3.50051 1.92223
29 1 0.219537 9.22349 1.8152 -3.31873 5.32822
30 1 2.59214 5.94303 -3.6073 -3.54208 0.0628023
31 1 2.26377 7.75503 -1.7998 -3.52393 0.0470305
32 1 1.84979 9.63033 0.00769757 -3.48323 0.387978
33 1 1.35959 11.3884 1.8152 -3.47641 0.449703
34 1 3.96768 8.13982 -3.6073 -3.54501 0.0193362
35 1 3.58324 9.94309 -1.7998 -3.54311 0.0488214
36 1 3.23005 11.7068 0.00769769 -3.52163 0.0469744
37 1 2.92126 13.4112 1.8152 -3.51215 0.0764983
38 1 5.37281 10.2708 -3.6073 -3.54256 0.00595322
39 1 5.04639 12.0293 -1.7998 -3.5346 0.00798012
40 1 4.71153 13.7902 0.00769811 -3.53286 0.0144801
41 1 4.3554 15.5594 1.8152 -3.53815 0.0117073
42 1 6.82758 12.3807 -3.6073 -3.53833 0.00307161
43 1 6.47755 14.1553 -1.7998 -3.5382 0.00186033
44 1 6.11005 15.9373 0.00769816 -3.54085 0.00239176
45 1 5.74051 17.7192 1.8152 -3.54477 0.0120198
46 1 8.24115 14.5165 -3.6073 -3.54075 0.000393308
47 1 7.87972 16.293 -1.7998 -3.54142 0.0022086
48 1 7.52645 18.0628 0.00769827 -3.5412 0.00224383
49 1 9.66003 16.6419 -3.6073 -3.54076 0.000625334
50 1 9.31495 18.4079 -1.7998 -3.53968 0.000255975
51 1 0.577487 -1.78015 -3.6073 -3.50628 1.75707
52 1 0.23355 -0.012376 -1.7998 -3.33162 4.79096
53 1 1.90596 0.373433 -3.6073 -3.4982 0.305037
54 1 1.4455 2.12466 -1.7998 -3.48806 0.325175
55 1 1.06914 3.78615 0.00769743 -3.51189 0.249824
56 1 0.859041 5.55108 1.8152 -3.52913 0.239
57 1 3.28271 2.46934 -3.6073 -3.52595 0.0298127
58 1 2.94424 4.18826 -1.7998 -3.52248 0.0393202
59 1 2.59214 5.94303 0.00769754 -3.54208 0.0628023
60 1 2.26377 7.75503 1.8152 -3.52398 0.0470305
61 1 4.72551 4.57372 -3.6073 -3.53441 0.00846496
62 1 4.35501 6.34067 -1.7998 -3.53806 0.00663118
63 1 3.96768 8.13982 0.00769765 -3.54501 0.0193362
64 1 3.58324 9.94309 1.8152 -3.54311 0.0488214
65 1 6.10992 6.7245 -3.6073 -3.54074 0.00229598
66 1 5.72959 8.50116 -1.7998 -3.54398 0.00953188
67 1 5.37281 10.2708 0.00769815 -3.54256 0.00595322
68 1 5.04639 12.0293 1.8152 -3.5346 0.00798012
69 1 7.51536 8.85362 -3.6073 -3.54079 0.00169771
70 1 7.16813 10.6148 -1.7998 -3.53916 0.00105083
71 1 6.82758 12.3807 0.00769827 -3.53833 0.00307161
72 1 6.47755 14.1553 1.8152 -3.5382 0.00186033
73 1 8.95148 10.9704 -3.6073 -3.53911 0.000643206
74 1 8.59943 12.7402 -1.7998 -3.53973 0.000553076
75 1 8.24115 14.5165 0.00769832 -3.54075 0.000393308
76 1 7.87972 16.293 1.8152 -3.54142 0.0022086
77 1 10.371 13.0995 -3.6073 -3.54048 8.23548e-05
78 1 10.0134 14.8718 -1.7998 -3.54106 0.000530614
79 1 9.66003 16.6419 0.00769843 -3.54076 0.000625334
80 1 9.31495 18.4079 1.8152 -3.53968 0.000255975
81 1 11.7919 15.2244 -3.6073 -3.54059 0.000188965
82 1 11.4426 16.9916 -1.7998 -3.54012 7.90465e-05
83 1 13.2228 17.3441 -3.6073 -3.53994 7.23619e-05
84 1 1.09335 -5.4108 -3.6073 -3.50604 0.277865
85 1 0.870385 -3.66486 -1.7998 -3.53358 0.24031
86 1 0.577487 -1.78015 0.0076972 -3.50628 1.75705
87 1 0.23355 -0.012376 1.8152 -3.33184 4.79096
88 1 2.61956 -3.26223 -3.6073 -3.54396 0.0568162
89 1 2.29223 -1.47214 -1.7998 -3.53058 0.0378149
90 1 1.90596 0.373433 0.00769757 -3.4982 0.305026
91 1 1.4455 2.12466 1.8152 -3.48845 0.325175
92 1 4.01906 -1.0866 -3.6073 -3.54561 0.0101779
93 1 3.64371 0.702717 -1.7998 -3.54236 0.0198634
94 1 3.28271 2.46934 0.00769769 -3.52595 0.0298127
95 1 2.94424 4.18826 1.8152 -3.52253 0.0393202
96 1 5.42171 1.04895 -3.6073 -3.54239 0.00208105
97 1 5.07811 2.81054 -1.7998 -3.53654 0.00416679
98 1 4.72551 4.57372 0.00769811 -3.53441 0.00846496
99 1 4.35501 6.34067 1.8152 -3.53806 0.00663118
100 1 6.85068 3.17156 -3.6073 -3.53906 0.00159
101 1 6.48798 4.94542 -1.7998 -3.53866 0.00120665
102 1 6.10992 6.7245 0.00769816 -3.54074 0.00229598
103 1 5.72959 8.50116 1.8152 -3.54398 0.00953188
104 1 8.24928 5.3117 -3.6073 -3.54072 0.000492661
105 1 7.87854 7.08628 -1.7998 -3.54127 0.00213408
106 1 7.51536 8.85362 0.00769827 -3.54079 0.00169771
107 1 7.16813 10.6148 1.8152 -3.53916 0.00105083
108 1 9.65666 7.44026 -3.6073 -3.5406 0.000575749
109 1 9.30177 9.20557 -1.7998 -3.53955 0.000161362
110 1 8.95148 10.9704 0.0076984 -3.53911 0.000643206
111 1 8.59943 12.7402 1.8152 -3.53973 0.000553076
112 1 11.0822 9.56023 -3.6073 -3.53961 0.000102477
113 1 10.7278 11.3285 -1.7998 -3.53975 0.000119223
114 1 10.371 13.0995 0.00769849 -3.54048 8.23548e-05
115 1 10.0134 14.8718 1.8152 -3.54106 0.000530614
116 1 12.5025 11.6855 -3.6073 -3.54022 1.39156e-05
117 1 12.1461 13.4554 -1.7998 -3.54057 0.000123534
118 1 11.7919 15.2244 0.00769896 -3.54059 0.000188965
119 1 11.4426 16.9916 1.8152 -3.54012 7.90465e-05
120 1 13.9236 13.8092 -3.6073 -3.54038 5.63325e-05
121 1 13.5718 15.5769 -1.7998 -3.5402 2.86374e-05
122 1 13.2228 17.3441 0.00769914 -3.53994 7.23619e-05
123 1 15.3504 15.9304 -3.6073 -3.54006 2.29389e-05
124 1 15.0001 17.6987 -1.7998 -3.53999 6.23197e-05
125 1 16.7753 18.0542 -3.6073 -3.54009 3.26527e-05
126 1 0.671419 -10.922 -3.6073 -3.45419 3.29531
127 1 0.352228 -9.1341 -1.7998 -3.29778 8.63328
128 1 1.98443 -8.78384 -3.6073 -3.47851 0.490797
129 1 1.50588 -7.03115 -1.7998 -3.46151 0.497758
130 1 1.09335 -5.4108 0.00769743 -3.50604 0.277842
131 1 0.870385 -3.66486 1.8152 -3.53326 0.24031
132 1 3.3361 -6.70406 -3.6073 -3.52357 0.0629824
133 1 2.98527 -4.99237 -1.7998 -3.51885 0.0445183
134 1 2.61956 -3.26223 0.00769754 -3.54396 0.0568162
135 1 2.29223 -1.47214 1.8152 -3.53065 0.0378149
136 1 4.77098 -4.61806 -3.6073 -3.53346 0.0126971
137 1 4.40011 -2.86329 -1.7998 -3.53761 0.00462482
138 1 4.01906 -1.0866 0.00769798 -3.54561 0.0101779
139 1 3.64371 0.702717 1.8152 -3.54237 0.0198634
140 1 6.16258 -2.4859 -3.6073 -3.53938 0.00177842
141 1 5.78506 -0.716802 -1.7998 -3.54259 0.00289174
142 1 5.42171 1.04895 0.00769815 -3.54239 0.00208105
143 1 5.07811 2.81054 1.8152 -3.53654 0.00416679
144 1 7.5626 -0.358685 -3.6073 -3.54023 0.000697149
145 1 7.20522 1.40465 -1.7998 -3.53952 0.000457717
146 1 6.85068 3.17156 0.00769827 -3.53906 0.00159
147 1 6.48798 4.94542 1.8152 -3.53866 0.00120665
148 1 8.97943 1.76465 -3.6073 -3.53928 0.000402843
149 1 8.61735 3.53614 -1.7998 -3.53984 0.000265225
150 1 8.24928 5.3117 0.00769832 -3.54072 0.000492661
151 1 7.87854 7.08628 1.8152 -3.54127 0.00213408
152 1 10.3842 3.89739 -3.6073 -3.54036 0.000146161
153 1 10.0187 5.6705 -1.7998 -3.54089 0.000568511
154 1 9.65666 7.44026 0.00769843 -3.5406 0.000575749
155 1 9.30177 9.20557 1.8152 -3.53955 0.000161362
156 1 11.7935 6.0249 -3.6073 -3.54045 0.00022134
157 1 11.4363 7.79323 -1.7998 -3.54003 6.51633e-05
158 1 11.0822 9.56023 0.00769889 -3.53961 0.000102477
159 1 10.7278 11.3285 1.8152 -3.53975 0.000119223
160 1 13.2138 8.1469 -3.6073 -3.53993 2.31119e-05
161 1 12.8586 9.91582 -1.7998 -3.53994 2.47688e-05
162 1 12.5025 11.6855 0.00769903 -3.54022 1.39156e-05
163 1 12.1461 13.4554 1.8152 -3.54057 0.000123534
164 1 14.6337 10.2707 -3.6073 -3.54017 8.78712e-06
165 1 14.2781 12.0404 -1.7998 -3.54034 3.4599e-05
166 1 13.9236 13.8092 0.00769918 -3.54038 5.63325e-05
167 1 13.5718 15.5769 1.8152 -3.5402 2.86374e-05
168 1 16.0546 12.394 -3.6073 -3.54028 2.14278e-05
169 1 15.7016 14.1625 -1.7998 -3.5402 1.28528e-05
170 1 15.3504 15.9304 0.0076994 -3.54006 2.29389e-05
171 1 15.0001 17.6987 1.8152 -3.53999 6.23197e-05
172 1 17.4786 14.516 -3.6073 -3.54012 1.05294e-05
173 1 17.127 16.2848 -1.7998 -3.54007 2.53011e-05
174 1 16.7753 18.0542 0.00769962 -3.54009 3.26527e-05
175 1 18.9019 16.6397 -3.6073 -3.54012 1.76684e-05
176 1 18.5492 18.41 -1.7998 -3.54016 1.50253e-05
177 1 1.01787 -14.5941 -3.6073 -3.48128 0.476214
178 1 0.896857 -12.8503 -1.7998 -3.51403 0.528308
179 1 0.671419 -10.922 0.0076972 -3.45419 3.29531
180 1 0.352228 -9.1341 1.8152 -3.29763 8.63328
181 1 2.63727 -12.4782 -3.6073 -3.54311 0.123629
182 1 2.35115 -10.6654 -1.7998 -3.52805 0.0753692
183 1 1.98443 -8.78384 0.00769757 -3.47851 0.490786
184 1 1.50588 -7.03115 1.8152 -3.46191 0.497758
185 1 4.05458 -10.2992 -3.6073 -3.54631 0.0194818
186 1 3.69376 -8.48694 -1.7998 -3.54267 0.0274436
187 1 3.3361 -6.70406 0.00769769 -3.52357 0.0629824
188 1 2.98527 -4.99237 1.8152 -3.5189 0.0445183
189 1 5.45579 -8.15954 -3.6073 -3.54398 0.00364123
190 1 5.12047 -6.38475 -1.7998 -3.53735 0.00519577
191 1 4.77098 -4.61806 0.00769811 -3.53346 0.0126971
192 1 4.40011 -2.86329 1.8152 -3.53761 0.00462482
193 1 6.8863 -6.04023 -3.6073 -3.53968 0.00122669
194 1 6.53293 -4.2619 -1.7998 -3.53844 0.00200896
195 1 6.16258 -2.4859 0.00769816 -3.53938 0.00177842
196 1 5.78506 -0.716802 1.8152 -3.54259 0.00289174
197 1 8.29105 -3.90641 -3.6073 -3.54047 0.000208878
198 1 7.92695 -2.12853 -1.7998 -3.54051 0.000956672
199 1 7.5626 -0.358685 0.00769827 -3.54023 0.000697149
200 1 7.20522 1.40465 1.8152 -3.53952 0.000457717
201 1 9.69537 -1.77653 -3.6073 -3.54046 0.000191515
202 1 9.33767 -0.00475843 -1.7998 -3.5396 0.000209775
203 1 8.97943 1.76465 0.0076984 -3.53928 0.000402843
204 1 8.61735 3.53614 1.8152 -3.53984 0.000265225
205 1 11.1079 0.34978 -3.6073 -3.53977 9.89217e-05
206 1 10.748 2.12347 -1.7998 -3.53978 0.000113218
207 1 10.3842 3.89739 0.00769882 -3.54036 0.000146161
208 1 10.0187 5.6705 1.8152 -3.54089 0.000568511
209 1 12.5158 2.4798 -3.6073 -3.54022 6.27902e-05
210 1 12.1541 4.25365 -1.7998 -3.54045 0.000194478
211 1 11.7935 6.0249 0.00769896 -3.54045 0.00022134
212 1 11.4363 7.79323 1.8152 -3.54003 6.51633e-05
213 1 13.9267 4.60695 -3.6073 -3.54033 9.74531e-05
214 1 13.5694 6.37776 -1.7998 -3.54014 4.92674e-05
215 1 13.2138 8.1469 0.00769914 -3.53993 2.31119e-05
216 1 12.8586 9.91582 1.8152 -3.53994 2.47688e-05
217 1 15.3445 6.73042 -3.6073 -3.54008 1.4144e-05
218 1 14.9893 8.50072 -1.7998 -3.54005 1.0679e-05
219 1 14.6337 10.2707 0.0076993 -3.54017 8.78712e-06
220 1 14.2781 12.0404 1.8152 -3.54034 3.4599e-05
221 1 16.7638 8.8541 -3.6073 -3.54017 7.74342e-06
222 1 16.4089 10.6245 -1.7998 -3.54025 1.53038e-05
223 1 16.0546 12.394 0.00769948 -3.54028 2.14278e-05
224 1 15.7016 14.1625 1.8152 -3.5402 1.28528e-05
225 1 18.1842 10.9774 -3.6073 -3.54024 1.03384e-05
226 1 17.831 12.747 -1.7998 -3.5402 8.06683e-06
227 1 17.4786 14.516 0.00769972 -3.54012 1.05294e-05
228 1 17.127 16.2848 1.8152 -3.54007 2.53011e-05
229 1 19.6066 13.1002 -3.6073 -3.54016 6.10118e-06
230 1 19.2543 14.8699 -1.7998 -3.54012 1.24423e-05
231 1 18.9019 16.6397 0.00769998 -3.54012 1.76684e-05
232 1 18.5492 18.41 1.8152 -3.54016 1.50253e-05
233 1 21.0287 15.2242 -3.6073 -3.54015 1.01616e-05
234 1 20.6757 16.9948 -1.7998 -3.54016 1.05219e-05
235 1 22.4487 17.3499 -3.6073 -3.54018 6.3447e-06
236 1 1.89764 -17.9567 -3.6073 -3.45656 0.660197
237 1 1.38782 -16.1952 -1.7998 -3.43519 0.713975
238 1 1.01787 -14.5941 0.00769743 -3.48128 0.476214
239 1 0.896857 -12.8503 1.8152 -3.51403 0.528308
240 1 3.26832 -15.903 -3.6073 -3.51762 0.0796167
241 1 2.9602 -14.2106 -1.7998 -3.50867 0.0805963
242 1 2.63727 -12.4782 0.00769754 -3.54311 0.123629
243 1 2.35115 -10.6654 1.8152 -3.52808 0.0753692
244 1 4.76162 -13.8478 -3.6073 -3.53143 0.0190281
245 1 4.41565 -12.092 -1.7998 -3.53724 0.0123526
246 1 4.05458 -10.2992 0.00769798 -3.54631 0.0194818
247 1 3.69376 -8.48694 1.8152 -3.54269 0.0274436
248 1 6.17413 -11.718 -3.6073 -3.53955 0.00098382
249 1 5.80831 -9.9396 -1.7998 -3.54377 0.00385763
250 1 5.45579 -8.15954 0.00769815 -3.54398 0.00364123
251 1 5.12047 -6.38475 1.8152 -3.53735 0.00519577
252 1 7.57973 -9.58694 -3.6073 -3.54085 0.000489061
253 1 7.23122 -7.81553 -1.7998 -3.54042 0.000502887
254 1 6.8863 -6.04023 0.00769827 -3.53968 0.00122669
255 1 6.53293 -4.2619 1.8152 -3.53844 0.00200896
256 1 9.00192 -7.46277 -3.6073 -3.53967 0.000273795
257 1 8.64929 -5.68638 -1.7998 -3.5401 0.000308419
258 1 8.29105 -3.90641 0.00769832 -3.54047 0.000208878
259 1 7.92695 -2.12853 1.8152 -3.54051 0.000956672
260 1 10.4128 -5.33057 -3.6073 -3.54035 3.45811e-05
261 1 10.0542 -3.55257 -1.7998 -3.54075 0.000112696
262 1 9.69537 -1.77653 0.00769843 -3.54046 0.000191515
263 1 9.33767 -0.00475843 1.8152 -3.5396 0.000209775
264 1 11.8214 -3.19939 -3.6073 -3.54045 2.85113e-05
265 1 11.4648 -1.42425 -1.7998 -3.54016 1.74109e-05
266 1 11.1079 0.34978 0.00769889 -3.53977 9.89217e-05
267 1 10.748 2.12347 1.8152 -3.53978 0.000113218
268 1 13.2336 -1.07063 -3.6073 -3.54009 9.33793e-06
269 1 12.8759 0.704681 -1.7998 -3.54006 2.28229e-05
270 1 12.5158 2.4798 0.00769903 -3.54022 6.27902e-05
271 1 12.1541 4.25365 1.8152 -3.54045 0.000194478
272 1 14.6441 1.05904 -3.6073 -3.54025 1.8717e-05
273 1 14.2853 2.83385 -1.7998 -3.54035 6.83341e-05
274 1 13.9267 4.60695 0.00769918 -3.54033 9.74531e-05
275 1 13.5694 6.37776 1.8152 -3.54014 4.92674e-05
276 1 16.0566 3.18661 -3.6073 -3.54032 3.9521e-05
277 1 15.7001 4.95923 -1.7998 -3.54022 2.89188e-05
278 1 15.3445 6.73042 0.0076994 -3.54008 1.4144e-05
279 1 14.9893 8.50072 1.8152 -3.54005 1.0679e-05
280 1 17.4736 5.31147 -3.6073 -3.54018 8.11093e-06
281 1 17.1187 7.08311 -1.7998 -3.54014 6.10759e-06
282 1 16.7638 8.8541 0.00769962 -3.54017 7.74342e-06
283 1 16.4089 10.6245 1.8152 -3.54025 1.53038e-05
284 1 18.8925 7.43573 -3.6073 -3.5402 4.25878e-06
285 1 18.5382 9.20697 -1.7998 -3.54023 7.67706e-06
286 1 18.1842 10.9774 0.00769985 -3.54024 1.03384e-05
287 1 17.831 12.747 1.8152 -3.5402 8.06683e-06
288 1 20.3126 9.55959 -3.6073 -3.54023 4.57469e-06
289 1 19.9594 11.3302 -1.7998 -3.54021 4.56936e-06
290 1 19.6066 13.1002 0.00770042 -3.54016 6.10118e-06
291 1 19.2543 14.8699 1.8152 -3.54012 1.24423e-05
292 1 21.734 11.6832 -3.6073 -3.54019 3.05015e-06
293 1 21.3814 13.4537 -1.7998 -3.54016 6.46458e-06
294 1 21.0287 15.2242 0.00770066 -3.54015 1.01616e-05
295 1 20.6757 16.9948 1.8152 -3.54016 1.05219e-05
296 1 23.1552 13.8076 -3.6073 -3.54017 5.59667e-06
297 1 22.8021 15.5787 -1.7998 -3.54017 6.91059e-06
298 1 22.4487 17.3499 0.00770086 -3.54018 6.3447e-06
299 1 24.575 15.9333 -3.6073 -3.54019 4.45103e-06
300 1 24.2212 17.705 -1.7998 -3.54019 3.98419e-06
301 1 25.9933 18.0601 -3.6073 -3.5402 2.49588e-06
302 1 1.89764 -17.9567 0.00769757 -3.45656 0.660197
303 1 1.38782 -16.1952 1.8152 -3.43519 0.713975
304 1 3.61335 -17.6774 -1.7998 -3.54293 0.0606863
305 1 3.26832 -15.903 0.00769769 -3.51762 0.0796167
306 1 2.9602 -14.2106 1.8152 -3.50867 0.0805963
307 1 5.39611 -17.3696 -3.6073 -3.54384 0.00869054
308 1 5.08352 -15.6057 -1.7998 -3.5351 0.00889736
309 1 4.76162 -13.8478 0.00769811 -3.53143 0.0190281
310 1 4.41565 -12.092 1.8152 -3.53724 0.0123526
311 1 6.86529 -15.2714 -3.6073 -3.5386 0.00387954
312 1 6.53013 -13.4967 -1.7998 -3.53764 0.0038336
313 1 6.17413 -11.718 0.00769816 -3.53955 0.00098382
314 1 5.80831 -9.9396 1.8152 -3.54377 0.00385763
315 1 8.29043 -13.1427 -3.6073 -3.54028 0.00034546
316 1 7.93574 -11.3624 -1.7998 -3.54068 0.000426836
317 1 7.57973 -9.58694 0.00769827 -3.54085 0.000489061
318 1 7.23122 -7.81553 1.8152 -3.54042 0.000502887
319 1 9.70292 -11.0114 -3.6073 -3.54063 8.92563e-05
320 1 9.35217 -9.23653 -1.7998 -3.53989 4.19072e-05
321 1 9.00192 -7.46277 0.0076984 -3.53967 0.000273795
322 1 8.64929 -5.68638 1.8152 -3.5401 0.000308419
323 1 11.1216 -8.88404 -3.6073 -3.5399 6.3523e-05
324 1 10.7688 -7.10797 -1.7998 -3.53989 8.90193e-05
325 1 10.4128 -5.33057 0.00769882 -3.54035 3.45811e-05
326 1 10.0542 -3.55257 1.8152 -3.54075 0.000112696
327 1 12.5348 -6.75292 -3.6073 -3.54019 1.51979e-05
328 1 12.1784 -4.97584 -1.7998 -3.54039 1.9718e-05
329 1 11.8214 -3.19939 0.00769896 -3.54045 2.85113e-05
330 1 11.4648 -1.42425 1.8152 -3.54016 1.74109e-05
331 1 13.946 -4.62176 -3.6073 -3.54031 7.98387e-06
332 1 13.5899 -2.84598 -1.7998 -3.54022 1.85144e-06
333 1 13.2336 -1.07063 0.00769914 -3.54009 9.33793e-06
334 1 12.8759 0.704681 1.8152 -3.54006 2.28229e-05
335 1 15.3586 -2.49202 -3.6073 -3.54016 1.69501e-06
336 1 15.002 -0.716456 -1.7998 -3.54016 4.0055e-06
337 1 14.6441 1.05904 0.0076993 -3.54025 1.8717e-05
338 1 14.2853 2.83385 1.8152 -3.54035 6.83341e-05
339 1 16.7709 -0.362422 -3.6073 -3.54025 8.45185e-06
340 1 16.4137 1.41256 -1.7998 -3.54031 2.54288e-05
341 1 16.0566 3.18661 0.00769948 -3.54032 3.9521e-05
342 1 15.7001 4.95923 1.8152 -3.54022 2.89188e-05
343 1 18.1847 1.76554 -3.6073 -3.54029 1.81547e-05
344 1 17.8289 3.53899 -1.7998 -3.54025 1.52249e-05
345 1 17.4736 5.31147 0.00769972 -3.54018 8.11093e-06
346 1 17.1187 7.08311 1.8152 -3.54014 6.10759e-06
347 1 19.6016 3.89143 -3.6073 -3.54022 5.6369e-06
348 1 19.247 5.66387 -1.7998 -3.5402 3.41892e-06
349 1 18.8925 7.43573 0.00770031 -3.5402 4.25878e-06
350 1 18.5382 9.20697 1.8152 -3.54023 7.67706e-06
351 1 21.0203 6.01642 -3.6073 -3.54022 2.41674e-06
352 1 20.6663 7.78829 -1.7998 -3.54023 3.39148e-06
353 1 20.3126 9.55959 0.00770056 -3.54023 4.57469e-06
354 1 19.9594 11.3302 1.8152 -3.54021 4.56936e-06
355 1 22.4401 8.14092 -3.6073 -3.54023 1.87041e-06
356 1 22.0869 9.91228 -1.7998 -3.54022 1.95084e-06
357 1 21.734 11.6832 0.00770078 -3.54019 3.05015e-06
358 1 21.3814 13.4537 1.8152 -3.54016 6.46458e-06
359 1 23.8609 10.2652 -3.6073 -3.54021 1.28522e-06
360 1 23.5081 12.0365 -1.7998 -3.54019 3.10576e-06
361 1 23.1552 13.8076 0.00770098 -3.54017 5.59667e-06
362 1 22.8021 15.5787 1.8152 -3.54017 6.91059e-06
363 1 25.2815 12.3901 -3.6073 -3.54019 2.94478e-06
364 1 24.9284 14.1617 -1.7998 -3.54019 4.15807e-06
365 1 24.575 15.9333 0.00770117 -3.54019 4.45103e-06
366 1 24.2212 17.705 1.8152 -3.54019 3.98419e-06
367 1 26.7011 14.516 -3.6073 -3.5402 2.8743e-06
368 1 26.3473 16.288 -1.7998 -3.5402 2.81589e-06
369 1 25.9933 18.0601 0.00770142 -3.5402 2.49588e-06
370 1 28.1194 16.6427 -3.6073 -3.5402 1.7297e-06
371 1 27.7651 18.4151 -1.7998 -3.54021 1.50416e-06
372 1 3.61335 -17.6774 1.8152 -3.54293 0.0606863
373 1 5.39611 -17.3696 0.00769815 -3.54384 0.00869054
374 1 5.08352 -15.6057 1.8152 -3.5351 0.00889736
375 1 7.19125 -17.0394 -1.7998 -3.53976 0.00158657
376 1 6.86529 -15.2714 0.00769827 -3.5386 0.00387954
377 1 6.53013 -13.4967 1.8152 -3.53764 0.0038336
378 1 8.97616 -16.6925 -3.6073 -3.53918 0.00110619
379 1 8.63688 -14.9214 -1.7998 -3.53962 0.0014111
380 1 8.29043 -13.1427 0.00769832 -3.54028 0.00034546
381 1 7.93574 -11.3624 1.8152 -3.54068 0.000426836
382 1 10.4056 -14.5657 -3.6073 -3.54023 0.000267529
383 1 10.0548 -12.7888 -1.7998 -3.54079 8.35628e-05
384 1 9.70292 -11.0114 0.00769843 -3.54063 8.92563e-05
385 1 9.35217 -9.23653 1.8152 -3.53989 4.19072e-05
386 1 11.8235 -12.4348 -3.6073 -3.54055 3.5836e-05
387 1 11.4724 -10.6595 -1.7998 -3.5403 1.79522e-05
388 1 11.1216 -8.88404 0.00769889 -3.5399 6.3523e-05
389 1 10.7688 -7.10797 1.8152 -3.53989 8.90193e-05
390 1 13.2419 -10.3053 -3.6073 -3.54017 3.22524e-05
391 1 12.8893 -8.52965 -1.7998 -3.5401 3.68478e-05
392 1 12.5348 -6.75292 0.00769903 -3.54019 1.51979e-05
393 1 12.1784 -4.97584 1.8152 -3.54039 1.9718e-05
394 1 14.6571 -8.17432 -3.6073 -3.54023 1.45347e-05
395 1 14.3019 -6.39806 -1.7998 -3.5403 7.99277e-06
396 1 13.946 -4.62176 0.00769918 -3.54031 7.98387e-06
397 1 13.5899 -2.84598 1.8152 -3.54022 1.85144e-06
398 1 16.0702 -6.04319 -3.6073 -3.54028 5.81658e-06
399 1 15.7145 -4.26757 -1.7998 -3.54023 2.69234e-06
400 1 15.3586 -2.49202 0.0076994 -3.54016 1.69501e-06
401 1 15.002 -0.716456 1.8152 -3.54016 4.0055e-06
402 1 17.4837 -3.91303 -3.6073 -3.54021 2.78557e-06
403 1 17.1276 -2.13774 -1.7998 -3.5402 2.90586e-06
404 1 16.7709 -0.362422 0.00769962 -3.54025 8.45185e-06
405 1 16.4137 1.41256 1.8152 -3.54031 2.54288e-05
406 1 18.8972 -1.78346 -3.6073 -3.54025 5.84344e-06
407 1 18.5409 -0.00872664 -1.7998 -3.54028 1.22332e-05
408 1 18.1847 1.76554 0.00769985 -3.54029 1.81547e-05
409 1 17.8289 3.53899 1.8152 -3.54025 1.52249e-05
410 1 20.312 0.344742 -3.6073 -3.54027 1.00979e-05
411 1 19.9565 2.11838 -1.7998 -3.54026 9.30936e-06
412 1 19.6016 3.89143 0.00770042 -3.54022 5.6369e-06
413 1 19.247 5.66387 1.8152 -3.5402 3.41892e-06
414 1 21.7289 2.4713 -3.6073 -3.54024 4.64216e-06
415 1 21.3745 4.24407 -1.7998 -3.54022 2.85195e-06
416 1 21.0203 6.01642 0.00770066 -3.54022 2.41674e-06
417 1 20.6663 7.78829 1.8152 -3.54023 3.39148e-06
418 1 23.1475 4.59691 -3.6073 -3.54023 1.93852e-06
419 1 22.7937 6.36911 -1.7998 -3.54023 1.77455e-06
420 1 22.4401 8.14092 0.00770086 -3.54023 1.87041e-06
421 1 22.0869 9.91228 1.8152 -3.54022 1.95084e-06
422 1 24.5672 6.722 -3.6073 -3.54023 9.8491e-07
423 1 24.2139 8.49377 -1.7998 -3.54022 8.03703e-07
424 1 23.8609 10.2652 0.00770109 -3.54021 1.28522e-06
425 1 23.5081 12.0365 1.8152 -3.54019 3.10576e-06
426 1 25.9875 8.84692 -3.6073 -3.54021 5.99896e-07
427 1 25.6345 10.6186 -1.7998 -3.5402 1.46981e-06
428 1 25.2815 12.3901 0.00770132 -3.54019 2.94478e-06
429 1 24.9284 14.1617 1.8152 -3.54019 4.15807e-06
430 1 27.4077 10.9722 -3.6073 -3.5402 1.62158e-06
431 1 27.0545 12.744 -1.7998 -3.5402 2.46265e-06
432 1 26.7011 14.516 0.00770154 -3.5402 2.8743e-06
433 1 26.3473 16.288 1.8152 -3.5402 2.81589e-06
434 1 28.8271 13.0982 -3.6073 -3.5402 1.87518e-06
435 1 28.4734 14.8704 -1.7998 -3.5402 1.88303e-06
436 1 28.1194 16.6427 0.00770177 -3.5402 1.7297e-06
437 1 27.7651 18.4151 1.8152 -3.54021 1.50416e-06
438 1 30.2455 15.225 -3.6073 -3.54021 1.15483e-06
439 1 29.8913 16.9975 -1.7998 -3.54021 1.04094e-06
440 1 31.663 17.3523 -3.6073 -3.54021 6.68908e-07
441 1 7.19125 -17.0394 1.8152 -3.53976 0.00158657
442 1 8.97616 -16.6925 0.0076984 -3.53918 0.00110619
443 1 8.63688 -14.9214 1.8152 -3.53962 0.0014111
444 1 11.0975 -18.1076 -3.6073 -3.53959 0.000257966
445 1 10.753 -16.3389 -1.7998 -3.53961 0.000488452
446 1 10.4056 -14.5657 0.00769849 -3.54023 0.000267529
447 1 10.0548 -12.7888 1.8152 -3.54079 8.35628e-05
448 1 12.526 -15.9828 -3.6073 -3.54005 0.000128479
449 1 12.1752 -14.2096 -1.7998 -3.54039 4.58745e-05
450 1 11.8235 -12.4348 0.00769896 -3.54055 3.5836e-05
451 1 11.4724 -10.6595 1.8152 -3.5403 1.79522e-05
452 1 13.946 -13.8536 -3.6073 -3.54033 1.48974e-05
453 1 13.5939 -12.0799 -1.7998 -3.54029 1.8719e-05
454 1 13.2419 -10.3053 0.00769914 -3.54017 3.22524e-05
455 1 12.8893 -8.52965 1.8152 -3.5401 3.68478e-05
456 1 15.3645 -11.7241 -3.6073 -3.5402 1.70447e-05
457 1 15.0112 -9.9498 -1.7998 -3.54018 2.22566e-05
458 1 14.6571 -8.17432 0.0076993 -3.54023 1.45347e-05
459 1 14.3019 -6.39806 1.8152 -3.5403 7.99277e-06
460 1 16.7805 -9.59368 -3.6073 -3.54022 1.0125e-05
461 1 16.4256 -7.81869 -1.7998 -3.54027 7.544e-06
462 1 16.0702 -6.04319 0.00769948 -3.54028 5.81658e-06
463 1 15.7145 -4.26757 1.8152 -3.54023 2.69234e-06
464 1 18.1949 -7.46301 -3.6073 -3.54026 4.54016e-06
465 1 17.8394 -5.68815 -1.7998 -3.54025 3.95252e-06
466 1 17.4837 -3.91303 0.00769972 -3.54021 2.78557e-06
467 1 17.1276 -2.13774 1.8152 -3.5402 2.90586e-06
468 1 19.6092 -5.33295 -3.6073 -3.54023 3.04988e-06
469 1 19.2533 -3.55829 -1.7998 -3.54023 3.46941e-06
470 1 18.8972 -1.78346 0.00770031 -3.54025 5.84344e-06
471 1 18.5409 -0.00872664 1.8152 -3.54028 1.22332e-05
472 1 21.0236 -3.20356 -3.6073 -3.54025 4.40379e-06
473 1 20.6677 -1.42932 -1.7998 -3.54026 7.37202e-06
474 1 20.312 0.344742 0.00770056 -3.54027 1.00979e-05
475 1 19.9565 2.11838 1.8152 -3.54026 9.30936e-06
476 1 22.4391 -1.07531 -3.6073 -3.54026 6.32226e-06
477 1 22.0838 0.698158 -1.7998 -3.54025 6.38242e-06
478 1 21.7289 2.4713 0.00770078 -3.54024 4.64216e-06
479 1 21.3745 4.24407 1.8152 -3.54022 2.85195e-06
480 1 23.8562 1.05163 -3.6073 -3.54024 3.77825e-06
481 1 23.5017 2.8244 -1.7998 -3.54023 2.6892e-06
482 1 23.1475 4.59691 0.00770098 -3.54023 1.93852e-06
483 1 22.7937 6.36911 1.8152 -3.54023 1.77455e-06
484 1 25.2746 3.17767 -3.6073 -3.54023 1.70964e-06
485 1 24.9208 4.94995 -1.7998 -3.54023 1.29298e-06
486 1 24.5672 6.722 0.00770117 -3.54023 9.8491e-07
487 1 24.2139 8.49377 1.8152 -3.54022 8.03703e-07
488 1 26.6941 5.3032 -3.6073 -3.54023 7.22129e-07
489 1 26.3406 7.07515 -1.7998 -3.54022 4.84743e-07
490 1 25.9875 8.84692 0.00770142 -3.54021 5.99896e-07
491 1 25.6345 10.6186 1.8152 -3.5402 1.46981e-06
492 1 28.114 7.42858 -3.6073 -3.54022 3.80516e-07
493 1 27.7608 9.20041 -1.7998 -3.54021 7.88644e-07
494 1 27.4077 10.9722 0.00770165 -3.5402 1.62158e-06
495 1 27.0545 12.744 1.8152 -3.5402 2.46265e-06
496 1 29.5339 9.55421 -3.6073 -3.54021 9.87628e-07
497 1 29.1805 11.3262 -1.7998 -3.54021 1.56137e-06
498 1 28.8271 13.0982 0.00770186 -3.5402 1.87518e-06
499 1 28.4734 14.8704 1.8152 -3.5402 1.88303e-06
500 1 30.9531 11.6804 -3.6073 -3.54021 1.31726e-06
501 1 30.5994 13.4526 -1.7998 -3.54021 1.27726e-06
502 1 30.2455 15.225 0.00770207 -3.54021 1.15483e-06
503 1 29.8913 16.9975 1.8152 -3.54021 1.04094e-06
504 1 32.3715 13.8072 -3.6073 -3.54021 7.40031e-07
505 1 32.0174 15.5797 -1.7998 -3.54021 6.98348e-07
506 1 31.663 17.3523 0.00770223 -3.54021 6.68908e-07
507 1 33.7893 15.9344 -3.6073 -3.54021 5.33614e-07
508 1 33.4348 17.707 -1.7998 -3.54022 4.95752e-07
509 1 35.2065 18.0618 -3.6073 -3.54023 3.40054e-07
510 1 11.0975 -18.1076 0.00769889 -3.53959 0.000257966
511 1 10.753 -16.3389 1.8152 -3.53961 0.000488452
512 1 12.875 -17.7535 -1.7998 -3.53985 0.000169609
513 1 12.526 -15.9828 0.00769903 -3.54005 0.000128479
514 1 12.1752 -14.2096 1.8152 -3.54039 4.58745e-05
515 1 14.6497 -17.3976 -3.6073 -3.54007 6.53371e-05
516 1 14.2982 -15.6263 -1.7998 -3.54023 3.01876e-05
517 1 13.946 -13.8536 0.00769918 -3.54033 1.48974e-05
518 1 13.5939 -12.0799 1.8152 -3.54029 1.8719e-05
519 1 16.0704 -15.2698 -3.6073 -3.54024 1.0847e-05
520 1 15.7175 -13.4974 -1.7998 -3.54024 1.01822e-05
521 1 15.3645 -11.7241 0.0076994 -3.5402 1.70447e-05
522 1 15.0112 -9.9498 1.8152 -3.54018 2.22566e-05
523 1 17.4889 -13.141 -3.6073 -3.5402 8.51312e-06
524 1 17.1349 -11.3678 -1.7998 -3.54019 1.10002e-05
525 1 16.7805 -9.59368 0.00769962 -3.54022 1.0125e-05
526 1 16.4256 -7.81869 1.8152 -3.54027 7.544e-06
527 1 18.9054 -11.0113 -3.6073 -3.54021 5.12413e-06
528 1 18.5503 -9.23746 -1.7998 -3.54024 4.54615e-06
529 1 18.1949 -7.46301 0.00769985 -3.54026 4.54016e-06
530 1 17.8394 -5.68815 1.8152 -3.54025 3.95252e-06
531 1 20.3205 -8.88133 -3.6073 -3.54024 2.25807e-06
532 1 19.9649 -7.10732 -1.7998 -3.54024 2.76433e-06
533 1 19.6092 -5.33295 0.00770042 -3.54023 3.04988e-06
534 1 19.2533 -3.55829 1.8152 -3.54023 3.46941e-06
535 1 21.7354 -6.7517 -3.6073 -3.54023 1.86084e-06
536 1 21.3795 -4.97774 -1.7998 -3.54023 2.7474e-06
537 1 21.0236 -3.20356 0.00770066 -3.54025 4.40379e-06
538 1 20.6677 -1.42932 1.8152 -3.54026 7.37202e-06
539 1 23.1504 -4.62265 -3.6073 -3.54024 2.81497e-06
540 1 22.7947 -2.84896 -1.7998 -3.54025 4.64371e-06
541 1 22.4391 -1.07531 0.00770086 -3.54026 6.32226e-06
542 1 22.0838 0.698158 1.8152 -3.54025 6.38242e-06
543 1 24.5663 -2.49452 -3.6073 -3.54025 3.92957e-06
544 1 24.211 -0.721359 -1.7998 -3.54025 4.39128e-06
545 1 23.8562 1.05163 0.00770109 -3.54024 3.77825e-06
546 1 23.5017 2.8244 1.8152 -3.54023 2.6892e-06
547 1 25.9835 -0.36743 -3.6073 -3.54024 2.79653e-06
548 1 25.6289 1.4052 -1.7998 -3.54023 2.28137e-06
549 1 25.2746 3.17767 0.00770132 -3.54023 1.70964e-06
550 1 24.9208 4.94995 1.8152 -3.54023 1.29298e-06
551 1 27.4018 1.75886 -3.6073 -3.54023 1.35415e-06
552 1 27.0478 3.5311 -1.7998 -3.54023 1.02162e-06
553 1 26.6941 5.3032 0.00770154 -3.54023 7.22129e-07
554 1 26.3406 7.07515 1.8152 -3.54022 4.84743e-07
555 1 28.821 3.8847 -3.6073 -3.54023 5.42185e-07
556 1 28.4674 5.65668 -1.7998 -3.54022 3.84406e-07
557 1 28.114 7.42858 0.00770177 -3.54022 3.80516e-07
558 1 27.7608 9.20041 1.8152 -3.54021 7.88644e-07
559 1 30.2406 6.01039 -3.6073 -3.54022 2.65874e-07
560 1 29.8872 7.78229 -1.7998 -3.54021 4.71635e-07
561 1 29.5339 9.55421 0.00770198 -3.54021 9.87628e-07
562 1 29.1805 11.3262 1.8152 -3.54021 1.56137e-06
563 1 31.6602 8.13625 -3.6073 -3.54021 6.26433e-07
564 1 31.3067 9.90827 -1.7998 -3.54021 1.09149e-06
565 1 30.9531 11.6804 0.00770215 -3.54021 1.31726e-06
566 1 30.5994 13.4526 1.8152 -3.54021 1.27726e-06
567 1 33.0793 10.2625 -3.6073 -3.54022 1.03326e-06
568 1 32.7255 12.0348 -1.7998 -3.54021 8.96961e-07
569 1 32.3715 13.8072 0.00770229 -3.54021 7.40031e-07
570 1 32.0174 15.5797 1.8152 -3.54021 6.98348e-07
571 1 34.4977 12.3894 -3.6073 -3.54021 4.01815e-07
572 1 34.1436 14.1618 -1.7998 -3.54021 4.06583e-07
573 1 33.7893 15.9344 0.0077024 -3.54021 5.33614e-07
574 1 33.4348 17.707 1.8152 -3.54022 4.95752e-07
575 1 35.9156 14.5165 -3.6073 -3.54021 4.18642e-07
576 1 35.5611 16.2891 -1.7998 -3.54023 6.1574e-07
577 1 35.2065 18.0618 0.00770249 -3.54023 3.40054e-07
578 1 37.333 16.6438 -3.6073 -3.54024 7.43254e-07
579 1 36.9781 18.4166 -1.7998 -3.54023 5.60829e-08
580 1 12.875 -17.7535 1.8152 -3.53985 0.000169609
581 1 14.6497 -17.3976 0.0076993 -3.54007 6.53371e-05
582 1 14.2982 -15.6263 1.8152 -3.54023 3.01876e-05
583 1 16.4231 -17.0413 -1.7998 -3.54018 2.17225e-05
584 1 16.0704 -15.2698 0.00769948 -3.54024 1.0847e-05
585 1 15.7175 -13.4974 1.8152 -3.54024 1.01822e-05