ITEM: TIMESTEP
0
ITEM: NUMBER OF ATOMS
2504
ITEM: BOX BOUNDS xy xz yz mm pp pp
-5.5498871899999997e+01 5.5498871899999997e+01 0.0000000000000000e+00
-1.8432957300000002e+01 1.8432957300000002e+01 0.0000000000000000e+00
-3.6150000000000002e+00 3.6150000000000002e+00 0.0000000000000000e+00
ITEM: ATOMS id type x y z c_eng c_csym
1 1 0.638653 16.7109 -3.61382 -3.44559 3.725
2 1 0.284411 -18.3468 -1.80632 -3.28959 9.22628
3 1 1.0245 13.0084 -3.61382 -3.47834 0.482468
4 1 0.89425 14.7546 -1.80632 -3.50363 0.597343
5 1 0.638653 16.7109 0.00118148 -3.44559 3.725
6 1 0.284411 -18.3468 1.80868 -3.28959 9.22628
7 1 2.61232 15.159 -3.61382 -3.54254 0.12349
8 1 2.29885 16.985 -1.80632 -3.52431 0.072683
9 1 3.99438 17.3612 -3.61382 -3.54668 0.0278581
10 1 0.628385 7.48258 -3.61382 -3.45653 3.42291
11 1 0.273885 9.28532 -1.80632 -3.29284 9.08064
12 1 1.89268 9.65687 -3.61382 -3.46302 0.643978
13 1 1.39302 11.4069 -1.80632 -3.43719 0.70158
14 1 1.0245 13.0084 0.00118181 -3.47834 0.482468
15 1 0.89425 14.7546 1.80868 -3.50363 0.597343
16 1 3.26893 11.7178 -3.61382 -3.51809 0.0674732
17 1 2.95497 13.413 -1.80632 -3.50853 0.0944462
18 1 2.61232 15.159 0.00118196 -3.54254 0.12349
19 1 2.29885 16.985 1.80868 -3.52431 0.072683
20 1 4.74149 13.7959 -3.61382 -3.53209 0.0179499
21 1 4.37573 15.5601 -1.80632 -3.5383 0.0090587
22 1 3.99438 17.3612 0.00118212 -3.54668 0.0278581
23 1 6.13031 15.9412 -3.61382 -3.54057 0.00236845
24 1 5.75512 17.7182 -1.80632 -3.5445 0.00975624
25 1 7.53945 18.0671 -3.61382 -3.54077 0.00141111
26 1 1.03444 3.78785 -3.61382 -3.48207 0.461569
27 1 0.892199 5.5361 -1.80632 -3.50825 0.532754
28 1 0.628385 7.48258 0.00118148 -3.45653 3.42291
29 1 0.273885 9.28532 1.80868 -3.29288 9.08064
30 1 2.61201 5.94096 -3.61382 -3.54261 0.113246
31 1 2.29461 7.76381 -1.80632 -3.52447 0.0670769
32 1 1.89268 9.65687 0.00118201 -3.46302 0.643978
33 1 1.39302 11.4069 1.80868 -3.43719 0.70158
34 1 3.99207 8.14261 -3.61382 -3.5466 0.0262294
35 1 3.61686 9.95075 -1.80632 -3.54388 0.0517559
36 1 3.26893 11.7178 0.00118218 -3.51809 0.0674732
37 1 2.95497 13.413 1.80868 -3.50853 0.0944462
38 1 5.40145 10.2721 -3.61382 -3.54329 0.0057364
39 1 5.07909 12.0336 -1.80632 -3.53457 0.0103478
40 1 4.74149 13.7959 0.00118235 -3.53209 0.0179499
41 1 4.37573 15.5601 1.80868 -3.5383 0.0090587
42 1 6.85376 12.3828 -3.61382 -3.53859 0.00353035
43 1 6.5021 14.16 -1.80632 -3.53824 0.00219036
44 1 6.13031 15.9412 0.00118241 -3.54057 0.00236845
45 1 5.75512 17.7182 1.80868 -3.5445 0.00975624
46 1 8.26107 14.5203 -3.61382 -3.54083 0.000384748
47 1 7.89723 16.2979 -1.80632 -3.54124 0.00190898
48 1 7.53945 18.0671 0.00118258 -3.54077 0.00141111
49 1 9.67298 16.6479 -3.61382 -3.54068 0.000408383
50 1 9.32308 18.416 -1.80632 -3.5395 0.000187954
51 1 0.629785 -1.73542 -3.61382 -3.45792 3.38843
52 1 0.276041 0.0658603 -1.80632 -3.29451 9.03905
53 1 1.90132 0.434175 -3.61382 -3.46584 0.627382
54 1 1.40623 2.18314 -1.80632 -3.43936 0.679501
55 1 1.03444 3.78785 0.00118181 -3.48207 0.461568
56 1 0.892199 5.5361 1.80868 -3.50821 0.532754
57 1 3.27703 2.4981 -3.61382 -3.51885 0.0642495
58 1 2.95851 4.19555 -1.80632 -3.5103 0.0874333
59 1 2.61201 5.94096 0.00118196 -3.54261 0.113246
60 1 2.29461 7.76381 1.80868 -3.52448 0.0670769
61 1 4.74364 4.57943 -3.61382 -3.53231 0.0169074
62 1 4.37567 6.34329 -1.80632 -3.53828 0.00833912
63 1 3.99207 8.14261 0.00118212 -3.5466 0.0262294
64 1 3.61686 9.95075 1.80868 -3.54388 0.0517559
65 1 6.13029 6.72529 -3.61382 -3.54055 0.00239809
66 1 5.75344 8.5015 -1.80632 -3.54437 0.00940338
67 1 5.40145 10.2721 0.0011824 -3.54329 0.0057364
68 1 5.07909 12.0336 1.80868 -3.53457 0.0103478
69 1 7.53774 8.85178 -3.61382 -3.54071 0.00135783
70 1 7.19322 10.6142 -1.80632 -3.53929 0.00136398
71 1 6.85376 12.3828 0.00118258 -3.53859 0.00353035
72 1 6.5021 14.16 1.80868 -3.53824 0.00219036
73 1 8.97245 10.969 -3.61382 -3.53911 0.000819261
74 1 8.62046 12.7415 -1.80632 -3.53988 0.000628677
75 1 8.26107 14.5203 0.00118265 -3.54083 0.000384748
76 1 7.89723 16.2979 1.80868 -3.54124 0.00190898
77 1 10.3875 13.1004 -3.61382 -3.54051 7.01644e-05
78 1 10.0288 14.8754 -1.80632 -3.54108 0.00040065
79 1 9.67298 16.6479 0.00118281 -3.54068 0.000408383
80 1 9.32308 18.416 1.80868 -3.5395 0.000187954
81 1 11.8025 15.2283 -3.61382 -3.54058 0.000111838
82 1 11.4502 16.9988 -1.80632 -3.54011 3.42887e-05
83 1 13.2253 17.3521 -3.61382 -3.53999 3.68565e-05
84 1 1.03817 -5.42563 -3.61382 -3.48081 0.466589
85 1 0.893944 -3.68029 -1.80632 -3.50908 0.532123
86 1 0.629785 -1.73542 0.00118148 -3.45792 3.38843
87 1 0.276041 0.0658603 1.80868 -3.29455 9.03905
88 1 2.61623 -3.27379 -3.61382 -3.54302 0.111836
89 1 2.29899 -1.45432 -1.80632 -3.52573 0.0657078
90 1 1.90132 0.434175 0.00118201 -3.46584 0.627381
91 1 1.40623 2.18314 1.80868 -3.43943 0.679501
92 1 3.99997 -1.0754 -3.61382 -3.5468 0.0243473
93 1 3.62617 0.730594 -1.80632 -3.54377 0.0463742
94 1 3.27703 2.4981 0.00118218 -3.51885 0.0642495
95 1 2.95851 4.19555 1.80868 -3.51031 0.0874333
96 1 5.40898 1.05482 -3.61382 -3.54326 0.00504018
97 1 5.08397 2.81679 -1.80632 -3.53485 0.00960794
98 1 4.74364 4.57943 0.00118235 -3.53231 0.0169074
99 1 4.37567 6.34329 1.80868 -3.53828 0.00833912
100 1 6.85731 3.16749 -3.61382 -3.5387 0.00324796
101 1 6.50371 4.94457 -1.80632 -3.53831 0.00208762
102 1 6.13029 6.72529 0.00118241 -3.54055 0.00239809
103 1 5.75344 8.5015 1.80868 -3.54437 0.00940338
104 1 8.26233 5.30557 -3.61382 -3.54083 0.000398281
105 1 7.89704 7.08291 -1.80632 -3.54121 0.00191273
106 1 7.53774 8.85178 0.00118258 -3.54071 0.00135783
107 1 7.19322 10.6142 1.80868 -3.53929 0.00136398
108 1 9.67246 7.4337 -3.61382 -3.54065 0.000405349
109 1 9.32106 9.20168 -1.80632 -3.53948 0.000183409
110 1 8.97245 10.969 0.00118276 -3.53911 0.000819261
111 1 8.62046 12.7415 1.80868 -3.53988 0.000628677
112 1 11.0977 9.55508 -3.61382 -3.53962 0.000159677
113 1 10.7445 11.3264 -1.80632 -3.53976 0.000171486
114 1 10.3875 13.1004 0.00118289 -3.54051 7.01644e-05
115 1 10.0288 14.8754 1.80868 -3.54108 0.00040065
116 1 12.5149 11.683 -3.61382 -3.54024 1.25501e-05
117 1 12.1582 13.4562 -1.80632 -3.54056 7.98708e-05
118 1 11.8025 15.2283 0.00118314 -3.54058 0.000111838
119 1 11.4502 16.9988 1.80868 -3.54011 3.42887e-05
120 1 13.9313 13.8103 -3.61382 -3.54038 2.97053e-05
121 1 13.5776 15.5814 -1.80632 -3.54021 9.69543e-06
122 1 13.2253 17.3521 0.00118338 -3.53999 3.68565e-05
123 1 15.3518 15.9353 -3.61382 -3.54011 7.53293e-06
124 1 14.9985 17.7068 -1.80632 -3.54009 1.7702e-05
125 1 16.7709 18.0618 -3.61382 -3.54019 2.93725e-06
126 1 0.644236 -10.9404 -3.61382 -3.44744 3.67065
127 1 0.294299 -9.13604 -1.80632 -3.29154 9.14191
128 1 1.91339 -8.7732 -3.61382 -3.46246 0.662764
129 1 1.41552 -7.024 -1.80632 -3.43452 0.712219
130 1 1.03817 -5.42563 0.00118181 -3.48081 0.466589
131 1 0.893944 -3.68029 1.80868 -3.50903 0.532123
132 1 3.28524 -6.71175 -3.61382 -3.51853 0.0701875
133 1 2.96482 -5.01542 -1.80632 -3.50977 0.0877108
134 1 2.61623 -3.27379 0.00118196 -3.54302 0.111836
135 1 2.29899 -1.45432 1.80868 -3.52574 0.0657078
136 1 4.75063 -4.63325 -3.61382 -3.53218 0.0174436
137 1 4.38261 -2.87127 -1.80632 -3.53825 0.00777774
138 1 3.99997 -1.0754 0.00118217 -3.5468 0.0243473
139 1 3.62617 0.730594 1.80868 -3.54377 0.0463742
140 1 6.13839 -2.49026 -3.61382 -3.54034 0.00219887
141 1 5.76197 -0.715208 -1.80632 -3.54417 0.00810003
142 1 5.40898 1.05482 0.0011824 -3.54326 0.00504018
143 1 5.08397 2.81679 1.80868 -3.53485 0.00960794
144 1 7.54501 -0.364056 -3.61382 -3.54063 0.00115013
145 1 7.19893 1.39875 -1.80632 -3.53934 0.00122573
146 1 6.85731 3.16749 0.00118258 -3.5387 0.00324796
147 1 6.50371 4.94457 1.80868 -3.53831 0.00208762
148 1 8.97675 1.75421 -3.61382 -3.53914 0.000753162
149 1 8.62321 3.52697 -1.80632 -3.5399 0.000561451
150 1 8.26233 5.30557 0.00118265 -3.54083 0.000398281
151 1 7.89704 7.08291 1.80868 -3.54121 0.00191273
152 1 10.3896 3.8861 -3.61382 -3.54049 6.89341e-05
153 1 10.0296 5.66122 -1.80632 -3.54105 0.000402388
154 1 9.67246 7.4337 0.00118281 -3.54065 0.000405349
155 1 9.32106 9.20168 1.80868 -3.53948 0.000183409
156 1 11.8028 6.01448 -3.61382 -3.54056 0.000112791
157 1 11.4492 7.78512 -1.80632 -3.5401 3.08924e-05
158 1 11.0977 9.55508 0.00118304 -3.53962 0.000159677
159 1 10.7445 11.3264 1.80868 -3.53976 0.000171486
160 1 13.2239 8.13862 -3.61382 -3.53999 2.75655e-05
161 1 12.8703 9.91026 -1.80632 -3.53998 4.41809e-05
162 1 12.5149 11.683 0.00118324 -3.54024 1.25501e-05
163 1 12.1582 13.4562 1.80868 -3.54056 7.98708e-05
164 1 14.642 10.2655 -3.61382 -3.54021 3.011e-06
165 1 14.2865 12.0381 -1.80632 -3.54036 1.57441e-05
166 1 13.9313 13.8103 0.00118345 -3.54038 2.97053e-05
167 1 13.5776 15.5814 1.80868 -3.54021 9.69543e-06
168 1 16.0593 12.3924 -3.61382 -3.54031 7.75298e-06
169 1 15.7051 14.164 -1.80632 -3.54023 3.30623e-06
170 1 15.3518 15.9353 0.00118376 -3.54011 7.53293e-06
171 1 14.9985 17.7068 1.80868 -3.54009 1.7702e-05
172 1 17.4786 14.518 -3.61382 -3.54017 1.65822e-06
173 1 17.1249 16.2898 -1.80632 -3.54014 4.96271e-06
174 1 16.7709 18.0618 0.00118408 -3.54019 2.93725e-06
175 1 18.8975 16.6444 -3.61382 -3.54019 1.2777e-06
176 1 18.5431 18.4166 -1.80632 -3.54023 1.85128e-07
177 1 1.02656 -14.637 -3.61382 -3.47673 0.501844
178 1 0.898016 -12.892 -1.80632 -3.50532 0.587439
179 1 0.644236 -10.9404 0.00118148 -3.44744 3.67065
180 1 0.294299 -9.13604 1.80868 -3.29156 9.14191
181 1 2.61895 -12.4902 -3.61382 -3.54282 0.123842
182 1 2.30805 -10.6672 -1.80632 -3.52527 0.0719649
183 1 1.91339 -8.7732 0.00118201 -3.46246 0.662764
184 1 1.41552 -7.024 1.80868 -3.43459 0.712219
185 1 4.00544 -10.2913 -3.61382 -3.54683 0.0258451
186 1 3.63387 -8.48176 -1.80632 -3.54388 0.0478285
187 1 3.28524 -6.71175 0.00118218 -3.51853 0.0701875
188 1 2.96482 -5.01542 1.80868 -3.50978 0.0877108
189 1 5.41422 -8.16043 -3.61382 -3.54355 0.00533073
190 1 5.09048 -6.39643 -1.80632 -3.53503 0.00967085
191 1 4.75063 -4.63325 0.00118235 -3.53218 0.0174436
192 1 4.38261 -2.87127 1.80868 -3.53825 0.00777774
193 1 6.86279 -6.04827 -3.61382 -3.5388 0.00315881
194 1 6.51062 -4.2705 -1.80632 -3.53827 0.00220283
195 1 6.13839 -2.49026 0.00118241 -3.54034 0.00219887
196 1 5.76197 -0.715208 1.80868 -3.54417 0.00810003
197 1 8.26875 -3.91116 -3.61382 -3.54079 0.000343844
198 1 7.90449 -2.13331 -1.80632 -3.5411 0.00167442
199 1 7.54501 -0.364056 0.00118258 -3.54063 0.00115013
200 1 7.19893 1.39875 1.80868 -3.53934 0.00122573
201 1 9.67841 -1.78283 -3.61382 -3.54063 0.000336034
202 1 9.32658 -0.0138505 -1.80632 -3.53949 0.000180155
203 1 8.97675 1.75421 0.00118276 -3.53914 0.000753162
204 1 8.62321 3.52697 1.80868 -3.5399 0.000561451
205 1 11.1016 0.339526 -3.61382 -3.53965 0.00015296
206 1 10.7476 2.11172 -1.80632 -3.53976 0.000157973
207 1 10.3896 3.8861 0.00118294 -3.54049 6.89341e-05
208 1 10.0296 5.66122 1.80868 -3.54105 0.000402388
209 1 12.517 2.46823 -3.61382 -3.54024 1.49435e-05
210 1 12.1594 4.24198 -1.80632 -3.54054 8.53089e-05
211 1 11.8028 6.01448 0.00118314 -3.54056 0.000112791
212 1 11.4492 7.78512 1.80868 -3.5401 3.08924e-05
213 1 13.9318 4.59596 -3.61382 -3.54037 3.3033e-05
214 1 13.5772 6.36757 -1.80632 -3.5402 9.52568e-06
215 1 13.2239 8.13862 0.00118338 -3.53999 2.75655e-05
216 1 12.8703 9.91026 1.80868 -3.53998 4.41809e-05
217 1 15.3509 6.72133 -3.61382 -3.54011 4.45633e-06
218 1 14.9968 8.49317 -1.80632 -3.54009 1.02071e-05
219 1 14.642 10.2655 0.00118362 -3.54021 3.011e-06
220 1 14.2865 12.0381 1.80868 -3.54036 1.57441e-05
221 1 16.7691 8.84782 -3.61382 -3.5402 8.04651e-07
222 1 16.4142 10.6202 -1.80632 -3.54028 3.02483e-06
223 1 16.0593 12.3924 0.00118387 -3.54031 7.75298e-06
224 1 15.7051 14.164 1.80868 -3.54023 3.30623e-06
225 1 18.1868 10.9744 -3.61382 -3.54026 2.02143e-06
226 1 17.8325 12.7464 -1.80632 -3.54023 1.18225e-06
227 1 17.4786 14.518 0.00118421 -3.54017 1.65822e-06
228 1 17.1249 16.2898 1.80868 -3.54014 4.96271e-06
229 1 19.6055 13.1005 -3.61382 -3.5402 4.4639e-07
230 1 19.2516 14.8724 -1.80632 -3.54018 1.46014e-06
231 1 18.8975 16.6444 0.00118458 -3.54019 1.2777e-06
232 1 18.5431 18.4166 1.80868 -3.54023 1.85128e-07
233 1 21.0241 15.2269 -3.61381 -3.5402 5.68792e-07
234 1 20.6698 16.9991 -1.80631 -3.54022 1.82734e-07
235 1 22.4422 17.3537 -3.61381 -3.54022 4.23375e-08
236 1 1.90004 -17.983 -3.61382 -3.45901 0.692586
237 1 1.39736 -16.2324 -1.80632 -3.43013 0.750473
238 1 1.02656 -14.637 0.00118181 -3.47673 0.501844
239 1 0.898016 -12.892 1.80868 -3.50532 0.587439
240 1 3.27482 -15.9255 -3.61382 -3.51751 0.0729628
241 1 2.96096 -14.2322 -1.80632 -3.50806 0.0953654
242 1 2.61895 -12.4902 0.00118196 -3.54282 0.123842
243 1 2.30805 -10.6672 1.80868 -3.52527 0.0719649
244 1 4.74919 -13.8518 -3.61382 -3.53187 0.0187646
245 1 4.385 -12.0896 -1.80632 -3.53817 0.009059
246 1 4.00544 -10.2913 0.00118217 -3.54683 0.0258451
247 1 3.63387 -8.48176 1.80868 -3.54388 0.0478285
248 1 6.14017 -11.7091 -3.61382 -3.54038 0.00200755
249 1 5.76555 -9.93266 -1.80632 -3.54437 0.00831357
250 1 5.41422 -8.16043 0.0011824 -3.54355 0.00533073
251 1 5.09048 -6.39643 1.80868 -3.53503 0.00967085
252 1 7.54764 -9.58235 -3.61382 -3.54073 0.00114707
253 1 7.20293 -7.8183 -1.80632 -3.53949 0.00124112
254 1 6.86279 -6.04827 0.00118258 -3.5388 0.00315881
255 1 6.51062 -4.2705 1.80868 -3.53827 0.00220283
256 1 8.98021 -7.46395 -3.61382 -3.5392 0.00074393
257 1 8.62813 -5.69044 -1.80632 -3.53993 0.000582807
258 1 8.26875 -3.91116 0.00118265 -3.54079 0.000343844
259 1 7.90449 -2.13331 1.80868 -3.5411 0.00167442
260 1 10.394 -5.33214 -3.61382 -3.54049 6.12776e-05
261 1 10.0351 -3.55627 -1.80632 -3.54103 0.000325576
262 1 9.67841 -1.78283 0.00118281 -3.54063 0.000336034
263 1 9.32658 -0.0138505 1.80868 -3.53949 0.000180155
264 1 11.8071 -3.2032 -3.61382 -3.54056 8.52643e-05
265 1 11.4536 -1.43152 -1.80632 -3.54012 2.48297e-05
266 1 11.1016 0.339526 0.00118304 -3.53965 0.00015296
267 1 10.7476 2.11172 1.80868 -3.53976 0.000157973
268 1 13.227 -1.07802 -3.61382 -3.54002 2.66175e-05
269 1 12.873 0.694603 -1.80632 -3.54 4.09808e-05
270 1 12.517 2.46823 0.00118324 -3.54024 1.49435e-05
271 1 12.1594 4.24198 1.80868 -3.54054 8.53089e-05
272 1 14.6436 1.04978 -3.61382 -3.54023 3.51949e-06
273 1 14.2876 2.82319 -1.80632 -3.54037 1.88027e-05
274 1 13.9318 4.59596 0.00118345 -3.54037 3.3033e-05
275 1 13.5772 6.36757 1.80868 -3.5402 9.52568e-06
276 1 16.0596 3.17729 -3.61382 -3.54031 9.5049e-06
277 1 15.7049 4.94955 -1.80632 -3.54023 4.05012e-06
278 1 15.3509 6.72133 0.00118376 -3.54011 4.45633e-06
279 1 14.9968 8.49317 1.80868 -3.54009 1.02071e-05
280 1 17.4779 5.3034 -3.61382 -3.54018 6.36041e-07
281 1 17.1236 7.07554 -1.80632 -3.54015 2.05076e-06
282 1 16.7691 8.84782 0.00118408 -3.5402 8.04651e-07
283 1 16.4142 10.6202 1.80868 -3.54028 3.02483e-06
284 1 18.896 7.42987 -3.61382 -3.5402 1.77522e-07
285 1 18.5414 9.20223 -1.80632 -3.54024 6.31748e-07
286 1 18.1868 10.9744 0.00118441 -3.54026 2.02143e-06
287 1 17.8325 12.7464 1.80868 -3.54023 1.18225e-06
288 1 20.3139 9.55643 -3.61382 -3.54024 5.41903e-07
289 1 19.9596 11.3285 -1.80632 -3.54023 4.33592e-07
290 1 19.6055 13.1005 0.00118479 -3.5402 4.4639e-07
291 1 19.2516 14.8724 1.80868 -3.54018 1.46014e-06
292 1 21.7324 11.6827 -3.61381 -3.54021 1.45912e-07
293 1 21.3783 13.4548 -1.80631 -3.5402 4.69842e-07
294 1 21.0241 15.2269 0.00118513 -3.5402 5.68792e-07
295 1 20.6698 16.9991 1.80869 -3.54022 1.82734e-07
296 1 23.1508 13.8092 -3.61381 -3.54021 2.57352e-07
297 1 22.7966 15.5814 -1.80631 -3.54021 1.57455e-07
298 1 22.4422 17.3537 0.00118541 -3.54022 4.23375e-08
299 1 24.5689 15.9359 -3.61381 -3.54022 5.84799e-08
300 1 24.2145 17.7082 -1.80631 -3.54022 4.01322e-08
301 1 25.9868 18.0627 -3.61381 -3.54022 4.733e-08
302 1 1.90004 -17.983 0.00118201 -3.45901 0.692586
303 1 1.39736 -16.2324 1.80868 -3.43013 0.750473
304 1 3.6215 -17.6942 -1.80632 -3.54392 0.0536241
305 1 3.27482 -15.9255 0.00118218 -3.51751 0.0729628
306 1 2.96096 -14.2322 1.80868 -3.50806 0.0953654
307 1 5.40504 -17.3759 -3.61382 -3.54349 0.00612891
308 1 5.0848 -15.6136 -1.80632 -3.53464 0.0104688
309 1 4.74919 -13.8518 0.00118235 -3.53187 0.0187646
310 1 4.385 -12.0896 1.80868 -3.53817 0.009059
311 1 6.85956 -15.267 -3.61382 -3.53863 0.00364343
312 1 6.51019 -13.4898 -1.80632 -3.53815 0.00244975
313 1 6.14017 -11.7091 0.00118241 -3.54038 0.00200755
314 1 5.76555 -9.93266 1.80868 -3.54437 0.00831357
315 1 8.26866 -13.1307 -3.61382 -3.54077 0.000305392
316 1 7.90584 -11.3525 -1.80632 -3.54114 0.00156969
317 1 7.54764 -9.58235 0.00118258 -3.54073 0.00114707
318 1 7.20293 -7.8183 1.80868 -3.53949 0.00124112
319 1 9.67957 -11.0021 -3.61382 -3.54066 0.000317388
320 1 9.32881 -9.23268 -1.80632 -3.53954 0.000161683
321 1 8.98021 -7.46395 0.00118276 -3.5392 0.00074393
322 1 8.62813 -5.69044 1.80868 -3.53993 0.000582807
323 1 11.1037 -8.87962 -3.61382 -3.53967 0.00015173
324 1 10.7508 -7.10706 -1.80632 -3.53978 0.00016571
325 1 10.394 -5.33214 0.00118294 -3.54049 6.12776e-05
326 1 10.0351 -3.55627 1.80868 -3.54103 0.000325576
327 1 12.5199 -6.75075 -3.61382 -3.54023 1.31812e-05
328 1 12.1631 -4.9765 -1.80632 -3.54053 6.18335e-05
329 1 11.8071 -3.2032 0.00118314 -3.54056 8.52643e-05
330 1 11.4536 -1.43152 1.80868 -3.54012 2.48297e-05
331 1 13.9347 -4.6224 -3.61382 -3.54037 2.17675e-05
332 1 13.5804 -2.85002 -1.80632 -3.54021 5.59464e-06
333 1 13.227 -1.07802 0.00118338 -3.54002 2.66175e-05
334 1 12.873 0.694603 1.80868 -3.54 4.09808e-05
335 1 15.353 -2.49607 -3.61382 -3.54012 4.23789e-06
336 1 14.9988 -0.723416 -1.80632 -3.54011 9.6154e-06
337 1 14.6436 1.04978 0.00118362 -3.54023 3.51949e-06
338 1 14.2876 2.82319 1.80868 -3.54037 1.88027e-05
339 1 16.7702 -0.368661 -3.61382 -3.54021 9.19622e-07
340 1 16.4149 1.40443 -1.80632 -3.54029 4.15447e-06
341 1 16.0596 3.17729 0.00118387 -3.54031 9.5049e-06
342 1 15.7049 4.94955 1.80868 -3.54023 4.05012e-06
343 1 18.1869 1.75867 -3.61382 -3.54027 2.82904e-06
344 1 17.8322 3.53118 -1.80632 -3.54024 1.69102e-06
345 1 17.4779 5.3034 0.00118421 -3.54018 6.36041e-07
346 1 17.1236 7.07554 1.80868 -3.54015 2.05076e-06
347 1 19.6048 3.88519 -3.61382 -3.54021 1.47424e-07
348 1 19.2504 5.65752 -1.80632 -3.54019 2.89131e-07
349 1 18.896 7.42987 0.00118463 -3.5402 1.77522e-07
350 1 18.5414 9.20223 1.80868 -3.54024 6.31748e-07
351 1 21.0229 6.01174 -3.61381 -3.54021 1.68054e-08
352 1 20.6684 7.78413 -1.80631 -3.54023 1.38707e-07
353 1 20.3139 9.55643 0.00118499 -3.54024 5.41903e-07
354 1 19.9596 11.3285 1.80868 -3.54023 4.33592e-07
355 1 22.4409 8.13832 -3.61381 -3.54023 1.48385e-07
356 1 22.0866 9.91057 -1.80631 -3.54023 1.48743e-07
357 1 21.7324 11.6827 0.00118531 -3.54021 1.45912e-07
358 1 21.3783 13.4548 1.80869 -3.5402 4.69842e-07
359 1 23.8592 10.2648 -3.61381 -3.54022 4.91713e-08
360 1 23.505 12.037 -1.80631 -3.54021 1.61726e-07
361 1 23.1508 13.8092 0.00118559 -3.54021 2.57352e-07
362 1 22.7966 15.5814 1.80869 -3.54021 1.57455e-07
363 1 25.2775 12.3913 -3.61381 -3.54021 1.18288e-07
364 1 24.9233 14.1636 -1.80631 -3.54021 1.08917e-07
365 1 24.5689 15.9359 0.00118586 -3.54022 5.84799e-08
366 1 24.2145 17.7082 1.80869 -3.54022 4.01322e-08
367 1 26.6956 14.518 -3.61381 -3.54022 5.22343e-08
368 1 26.3412 16.2904 -1.80631 -3.54022 3.82054e-08
369 1 25.9868 18.0627 0.00118621 -3.54022 4.733e-08
370 1 28.1135 16.6449 -3.61381 -3.54022 2.85264e-08
371 1 27.7591 18.4173 -1.80631 -3.54021 4.10016e-08
372 1 3.6215 -17.6942 1.80868 -3.54392 0.0536241
373 1 5.40504 -17.3759 0.0011824 -3.54349 0.00612891
374 1 5.0848 -15.6136 1.80868 -3.53464 0.0104688
375 1 7.19678 -17.0359 -1.80632 -3.53938 0.00142425
376 1 6.85956 -15.267 0.00118258 -3.53863 0.00364343
377 1 6.51019 -13.4898 1.80868 -3.53815 0.00244975
378 1 8.97625 -16.6825 -3.61382 -3.53912 0.00087871
379 1 8.62622 -14.9098 -1.80632 -3.53987 0.000729457
380 1 8.26866 -13.1307 0.00118265 -3.54077 0.000305392
381 1 7.90584 -11.3525 1.80868 -3.54114 0.00156969
382 1 10.3929 -14.5515 -3.61382 -3.54048 6.47166e-05
383 1 10.0352 -12.7758 -1.80632 -3.54104 0.000295641
384 1 9.67957 -11.0021 0.00118281 -3.54066 0.000317388
385 1 9.32881 -9.23268 1.80868 -3.53954 0.000161683
386 1 11.8074 -12.4226 -3.61382 -3.54057 7.82634e-05
387 1 11.4548 -10.6509 -1.80632 -3.54014 2.4239e-05
388 1 11.1037 -8.87962 0.00118304 -3.53967 0.00015173
389 1 10.7508 -7.10706 1.80868 -3.53978 0.00016571
390 1 13.2283 -10.2973 -3.61382 -3.54003 3.03883e-05
391 1 12.8751 -8.52462 -1.80632 -3.54 4.68217e-05
392 1 12.5199 -6.75075 0.00118324 -3.54023 1.31812e-05
393 1 12.1631 -4.9765 1.80868 -3.54053 6.18335e-05
394 1 14.6456 -8.16929 -3.61382 -3.54022 4.71685e-06
395 1 14.2902 -6.39566 -1.80632 -3.54036 1.14768e-05
396 1 13.9347 -4.6224 0.00118345 -3.54037 2.17675e-05
397 1 13.5804 -2.85002 1.80868 -3.54021 5.59464e-06
398 1 16.0617 -6.04124 -3.61382 -3.54031 5.364e-06
399 1 15.7071 -4.26852 -1.80632 -3.54023 1.75309e-06
400 1 15.353 -2.49607 0.00118376 -3.54012 4.23789e-06
401 1 14.9988 -0.723416 1.80868 -3.54011 9.6154e-06
402 1 17.4794 -3.91431 -3.61382 -3.54018 5.58544e-07
403 1 17.125 -2.14161 -1.80632 -3.54016 1.99747e-06
404 1 16.7702 -0.368661 0.00118408 -3.54021 9.19622e-07
405 1 16.4149 1.40443 1.80868 -3.54029 4.15447e-06
406 1 18.8967 -1.78703 -3.61382 -3.54021 2.53802e-07
407 1 18.5418 -0.0141317 -1.80632 -3.54025 1.041e-06
408 1 18.1869 1.75867 0.00118441 -3.54027 2.82904e-06
409 1 17.8322 3.53118 1.80868 -3.54024 1.69102e-06
410 1 20.3138 0.340197 -3.61382 -3.54025 9.3056e-07
411 1 19.9592 2.11278 -1.80632 -3.54024 7.58989e-07
412 1 19.6048 3.88519 0.00118479 -3.54021 1.47424e-07
413 1 19.2504 5.65752 1.80868 -3.54019 2.89131e-07
414 1 21.7316 2.46693 -3.61381 -3.54022 1.14644e-07
415 1 21.3772 4.23935 -1.80631 -3.54021 2.50814e-08
416 1 21.0229 6.01174 0.00118513 -3.54021 1.68054e-08
417 1 20.6684 7.78413 1.80869 -3.54023 1.38707e-07
418 1 23.1497 4.59358 -3.61381 -3.54022 4.67165e-09
419 1 22.7953 6.36598 -1.80631 -3.54022 3.8239e-08
420 1 22.4409 8.13832 0.00118541 -3.54023 1.48385e-07
421 1 22.0866 9.91057 1.80869 -3.54023 1.48743e-07
422 1 24.5677 6.72021 -3.61381 -3.54022 4.84269e-08
423 1 24.2134 8.49252 -1.80631 -3.54022 5.12447e-08
424 1 23.8592 10.2648 0.00118574 -3.54022 4.91713e-08
425 1 23.505 12.037 1.80869 -3.54021 1.61726e-07
426 1 25.9859 8.84676 -3.61381 -3.54022 1.88366e-08
427 1 25.6317 10.619 -1.80631 -3.54021 5.8764e-08
428 1 25.2775 12.3913 0.00118608 -3.54021 1.18288e-07
429 1 24.9233 14.1636 1.80869 -3.54021 1.08917e-07
430 1 27.4042 10.9734 -3.61381 -3.54021 5.91466e-08
431 1 27.0499 12.7457 -1.80631 -3.54022 7.17713e-08
432 1 26.6956 14.518 0.00118639 -3.54022 5.22343e-08
433 1 26.3412 16.2904 1.80869 -3.54022 3.82054e-08
434 1 28.8223 13.1001 -3.61381 -3.54022 4.36419e-08
435 1 28.4679 14.8725 -1.80631 -3.54022 2.88582e-08
436 1 28.1135 16.6449 0.00118671 -3.54022 2.85264e-08
437 1 27.7591 18.4173 1.80869 -3.54021 4.10016e-08
438 1 30.2402 15.227 -3.61381 -3.54022 1.31e-08
439 1 29.8858 16.9994 -1.80631 -3.54022 2.16135e-08
440 1 31.658 17.3539 -3.61381 -3.54022 2.70309e-08
441 1 7.19678 -17.0359 1.80868 -3.53938 0.00142425
442 1 8.97625 -16.6825 0.00118276 -3.53912 0.00087871
443 1 8.62622 -14.9098 1.80868 -3.53987 0.000729457
444 1 11.1 -18.0972 -3.61382 -3.53962 0.000180511
445 1 10.7483 -16.3258 -1.80632 -3.53974 0.000213109
446 1 10.3929 -14.5515 0.00118289 -3.54048 6.47166e-05
447 1 10.0352 -12.7758 1.80868 -3.54104 0.000295641
448 1 12.5185 -15.9693 -3.61382 -3.54021 1.57498e-05
449 1 12.1626 -14.1956 -1.80632 -3.54054 4.93375e-05
450 1 11.8074 -12.4226 0.00118314 -3.54057 7.82634e-05
451 1 11.4548 -10.6509 1.80868 -3.54014 2.4239e-05
452 1 13.9348 -13.8412 -3.61382 -3.54037 1.68843e-05
453 1 13.581 -12.0692 -1.80632 -3.54022 5.60013e-06
454 1 13.2283 -10.2973 0.00118338 -3.54003 3.03883e-05
455 1 12.8751 -8.52462 1.80868 -3.54 4.68217e-05
456 1 15.3539 -11.715 -3.61382 -3.54013 6.11619e-06
457 1 15.0002 -9.94249 -1.80632 -3.54011 1.32192e-05
458 1 14.6456 -8.16929 0.00118362 -3.54022 4.71685e-06
459 1 14.2902 -6.39566 1.80868 -3.54036 1.14768e-05
460 1 16.7717 -9.58741 -3.61382 -3.54021 1.86429e-06
461 1 16.4167 -7.81432 -1.80632 -3.54028 2.15876e-06
462 1 16.0617 -6.04124 0.00118387 -3.54031 5.364e-06
463 1 15.7071 -4.26852 1.80868 -3.54023 1.75309e-06
464 1 18.1884 -7.45967 -3.61382 -3.54026 1.27884e-06
465 1 17.8338 -5.68694 -1.80632 -3.54024 6.47997e-07
466 1 17.4794 -3.91431 0.00118421 -3.54018 5.58544e-07
467 1 17.125 -2.14161 1.80868 -3.54016 1.99747e-06
468 1 19.6059 -5.3325 -3.61382 -3.54021 8.74065e-08
469 1 19.2514 -3.55983 -1.80632 -3.54019 3.77212e-07
470 1 18.8967 -1.78703 0.00118463 -3.54021 2.53802e-07
471 1 18.5418 -0.0141317 1.80868 -3.54025 1.041e-06
472 1 21.0234 -3.20527 -3.61381 -3.54021 8.97994e-08
473 1 20.6686 -1.43253 -1.80631 -3.54023 3.31943e-07
474 1 20.3138 0.340197 0.00118499 -3.54025 9.3056e-07
475 1 19.9592 2.11278 1.80868 -3.54024 7.58989e-07
476 1 22.4407 -1.07812 -3.61381 -3.54023 3.55743e-07
477 1 22.0861 0.694455 -1.80631 -3.54023 3.67083e-07
478 1 21.7316 2.46693 0.00118531 -3.54022 1.14644e-07
479 1 21.3772 4.23935 1.80869 -3.54021 2.50814e-08
480 1 23.8585 1.04873 -3.61381 -3.54022 1.03212e-07
481 1 23.504 2.82116 -1.80631 -3.54021 2.21757e-08
482 1 23.1497 4.59358 0.00118559 -3.54022 4.67165e-09
483 1 22.7953 6.36598 1.80869 -3.54022 3.8239e-08
484 1 25.2765 3.17544 -3.61381 -3.54022 1.49607e-08
485 1 24.9221 4.94784 -1.80631 -3.54022 2.06999e-08
486 1 24.5677 6.72021 0.00118586 -3.54022 4.84269e-08
487 1 24.2134 8.49252 1.80869 -3.54022 5.12447e-08
488 1 26.6945 5.30212 -3.61381 -3.54022 2.26931e-08
489 1 26.3402 7.07446 -1.80631 -3.54022 2.29739e-08
490 1 25.9859 8.84676 0.00118621 -3.54022 1.88366e-08
491 1 25.6317 10.619 1.80869 -3.54021 5.8764e-08
492 1 28.1127 7.42875 -3.61381 -3.54022 1.01937e-08
493 1 27.7584 9.20106 -1.80631 -3.54022 2.32326e-08
494 1 27.4042 10.9734 0.00118654 -3.54021 5.91466e-08
495 1 27.0499 12.7457 1.80869 -3.54022 7.17713e-08
496 1 29.5309 9.55541 -3.61381 -3.54022 3.39027e-08
497 1 29.1766 11.3277 -1.80631 -3.54022 5.33381e-08
498 1 28.8223 13.1001 0.00118684 -3.54022 4.36419e-08
499 1 28.4679 14.8725 1.80869 -3.54022 2.88582e-08
500 1 30.9489 11.6822 -3.61381 -3.54022 4.26865e-08
501 1 30.5946 13.4546 -1.80631 -3.54022 2.02653e-08
502 1 30.2402 15.227 0.00118714 -3.54022 1.31e-08
503 1 29.8858 16.9994 1.80869 -3.54022 2.16135e-08
504 1 32.3668 13.809 -3.61381 -3.54021 2.0168e-09
505 1 32.0124 15.5814 -1.80631 -3.54021 8.01485e-09
506 1 31.658 17.3539 0.00118737 -3.54022 2.70309e-08
507 1 33.7847 15.9359 -3.61381 -3.54022 2.62519e-08
508 1 33.4303 17.7084 -1.80631 -3.54022 5.36191e-08
509 1 35.2025 18.0629 -3.61381 -3.54023 8.43115e-08
510 1 11.1 -18.0972 0.00118304 -3.53962 0.000180511
511 1 10.7483 -16.3258 1.80868 -3.53974 0.000213109
512 1 12.8729 -17.7422 -1.80632 -3.53997 6.19646e-05
513 1 12.5185 -15.9693 0.00118324 -3.54021 1.57498e-05
514 1 12.1626 -14.1956 1.80868 -3.54054 4.93375e-05
515 1 14.6445 -17.3868 -3.61382 -3.5402 6.78097e-06
516 1 14.2896 -15.6139 -1.80632 -3.54035 6.91913e-06
517 1 13.9348 -13.8412 0.00118345 -3.54037 1.68843e-05
518 1 13.581 -12.0692 1.80868 -3.54022 5.60013e-06
519 1 16.0617 -15.2593 -3.61382 -3.5403 3.10045e-06
520 1 15.7076 -13.4871 -1.80632 -3.54023 1.22202e-06
521 1 15.3539 -11.715 0.00118376 -3.54013 6.11619e-06
522 1 15.0002 -9.94249 1.80868 -3.54011 1.32192e-05
523 1 17.4802 -13.1326 -3.61382 -3.54018 1.30042e-06
524 1 17.1261 -11.3602 -1.80632 -3.54016 3.61533e-06
525 1 16.7717 -9.58741 0.00118408 -3.54021 1.86429e-06
526 1 16.4167 -7.81432 1.80868 -3.54028 2.15876e-06
527 1 18.898 -11.0053 -3.61382 -3.54021 7.31915e-07
528 1 18.5433 -9.2325 -1.80632 -3.54024 4.31304e-07
529 1 18.1884 -7.45967 0.00118441 -3.54026 1.27884e-06
530 1 17.8338 -5.68694 1.80868 -3.54024 6.47997e-07
531 1 20.3152 -8.87776 -3.61382 -3.54024 2.88584e-07
532 1 19.9605 -7.10512 -1.80632 -3.54023 2.36075e-07
533 1 19.6059 -5.3325 0.00118479 -3.54021 8.74065e-08
534 1 19.2514 -3.55983 1.80868 -3.54019 3.77212e-07
535 1 21.7326 -6.75055 -3.61381 -3.54022 2.72307e-08
536 1 21.378 -4.97795 -1.80631 -3.54021 7.22202e-08
537 1 21.0234 -3.20527 0.00118513 -3.54021 8.97994e-08
538 1 20.6686 -1.43253 1.80869 -3.54023 3.31943e-07
539 1 23.1501 -4.62338 -3.61381 -3.54022 3.854e-08
540 1 22.7954 -2.85075 -1.80631 -3.54023 1.36333e-07
541 1 22.4407 -1.07812 0.00118541 -3.54023 3.55743e-07
542 1 22.0861 0.694455 1.80869 -3.54023 3.67083e-07
543 1 24.5676 -2.49628 -3.61381 -3.54023 1.54988e-07
544 1 24.213 -0.723752 -1.80631 -3.54023 1.91885e-07
545 1 23.8585 1.04873 0.00118574 -3.54022 1.03212e-07
546 1 23.504 2.82116 1.80869 -3.54021 2.21757e-08
547 1 25.9853 -0.369392 -3.61381 -3.54022 8.11683e-08
548 1 25.6309 1.40303 -1.80631 -3.54022 3.48622e-08
549 1 25.2765 3.17544 0.00118608 -3.54022 1.49607e-08
550 1 24.9221 4.94784 1.80869 -3.54022 2.06999e-08
551 1 27.4033 1.75737 -3.61381 -3.54022 1.74691e-08
552 1 27.0489 3.52975 -1.80631 -3.54022 1.56015e-08
553 1 26.6945 5.30212 0.00118639 -3.54022 2.26931e-08
554 1 26.3402 7.07446 1.80869 -3.54022 2.29739e-08
555 1 28.8213 3.88408 -3.61381 -3.54022 1.31522e-08
556 1 28.467 5.65643 -1.80631 -3.54022 1.51343e-08
557 1 28.1127 7.42875 0.00118671 -3.54022 1.01937e-08
558 1 27.7584 9.20106 1.80869 -3.54022 2.32326e-08
559 1 30.2394 6.01077 -3.61381 -3.54022 8.42734e-09
560 1 29.8851 7.78309 -1.80631 -3.54022 8.69524e-09
561 1 29.5309 9.55541 0.00118701 -3.54022 3.39027e-08
562 1 29.1766 11.3277 1.80869 -3.54022 5.33381e-08
563 1 31.6576 8.13746 -3.61381 -3.54022 2.12404e-08
564 1 31.3033 9.9098 -1.80631 -3.54022 5.07709e-08
565 1 30.9489 11.6822 0.00118725 -3.54022 4.26865e-08
566 1 30.5946 13.4546 1.80869 -3.54022 2.02653e-08
567 1 33.0756 10.2642 -3.61381 -3.54022 5.91937e-08
568 1 32.7212 12.0366 -1.80631 -3.54022 1.62702e-08
569 1 32.3668 13.809 0.00118744 -3.54021 2.0168e-09
570 1 32.0124 15.5814 1.80869 -3.54021 8.01485e-09
571 1 34.4935 12.3911 -3.61381 -3.54021 7.00999e-09
572 1 34.1391 14.1635 -1.80631 -3.54021 6.12942e-09
573 1 33.7847 15.9359 0.00118761 -3.54022 2.62519e-08
574 1 33.4303 17.7084 1.80869 -3.54022 5.36191e-08
575 1 35.9114 14.518 -3.61381 -3.54021 3.51993e-08
576 1 35.557 16.2904 -1.80631 -3.54023 1.26576e-07