ITEM: TIMESTEP
0
ITEM: NUMBER OF ATOMS
2504
ITEM: BOX BOUNDS xy xz yz mm pp pp
-5.5498871899999997e+01 5.5498871899999997e+01 0.0000000000000000e+00
-1.8432957300000002e+01 1.8432957300000002e+01 0.0000000000000000e+00
-3.6150000000000002e+00 3.6150000000000002e+00 0.0000000000000000e+00
ITEM: ATOMS id type x y z c_eng c_csym
1 1 0.632568 16.7602 -3.60256 -3.44033 3.56484
2 1 0.290534 -18.2893 -1.79506 -3.28238 9.06094
3 1 0.990006 13.0444 -3.60256 -3.49854 0.317832
4 1 0.856465 14.8 -1.79506 -3.5039 0.584621
5 1 0.632568 16.7602 0.0124359 -3.44033 3.56484
6 1 0.290534 -18.2893 1.81994 -3.28238 9.06094
7 1 2.58097 15.1771 -3.60256 -3.54086 0.119277
8 1 2.28588 17.0147 -1.79506 -3.52026 0.0822571
9 1 3.9742 17.3762 -3.60256 -3.54472 0.0298682
10 1 0.524759 7.4198 -3.60256 -3.518 1.10627
11 1 0.180011 9.17851 -1.79506 -3.35629 3.09525
12 1 1.8186 9.61102 -3.60256 -3.4978 0.249513
13 1 1.33528 11.375 -1.79506 -3.4979 0.32894
14 1 0.990006 13.0444 0.0124361 -3.49854 0.317832
15 1 0.856465 14.8 1.81994 -3.5039 0.584621
16 1 3.20178 11.6989 -3.60256 -3.52445 0.0364484
17 1 2.89675 13.4098 -1.79506 -3.51493 0.066967
18 1 2.58097 15.1771 0.0124361 -3.54086 0.119277
19 1 2.28588 17.0147 1.81994 -3.52026 0.0822571
20 1 4.68974 13.786 -3.60256 -3.53332 0.0130654
21 1 4.34061 15.559 -1.79506 -3.53797 0.014261
22 1 3.9742 17.3762 0.0124362 -3.54472 0.0298682
23 1 6.09531 15.9345 -3.60256 -3.54102 0.00280046
24 1 5.72989 17.72 -1.79506 -3.54493 0.0139329
25 1 7.517 18.0596 -3.60256 -3.54149 0.00310231
26 1 1.09437 3.78491 -3.60256 -3.52869 0.139358
27 1 0.834926 5.56197 -1.79506 -3.53979 0.100919
28 1 0.524759 7.4198 0.0124359 -3.518 1.10621
29 1 0.180011 9.17851 1.81994 -3.35695 3.09525
30 1 2.57769 5.94453 -3.60256 -3.54165 0.035651
31 1 2.24134 7.74864 -1.79506 -3.52415 0.0388345
32 1 1.8186 9.61102 0.0124362 -3.4978 0.249513
33 1 1.33528 11.375 1.81994 -3.4979 0.32894
34 1 3.94995 8.13779 -3.60256 -3.5438 0.0154827
35 1 3.55878 9.93752 -1.79506 -3.54285 0.0473414
36 1 3.20178 11.6989 0.0124362 -3.52445 0.0364484
37 1 2.89675 13.4098 1.81994 -3.51493 0.066967
38 1 5.35198 10.2698 -3.60256 -3.542 0.00630991
39 1 5.02261 12.0262 -1.79506 -3.53454 0.00663519
40 1 4.68974 13.786 0.0124368 -3.53332 0.0130654
41 1 4.34061 15.559 1.81994 -3.53797 0.014261
42 1 6.80855 12.3791 -3.60256 -3.53808 0.0027868
43 1 6.45969 14.1519 -1.79506 -3.53812 0.00181498
44 1 6.09531 15.9345 0.0124369 -3.54102 0.00280046
45 1 5.72989 17.72 1.81994 -3.54493 0.0139329
46 1 8.22665 14.5138 -3.60256 -3.54066 0.000431739
47 1 7.86699 16.2894 -1.79506 -3.54153 0.00256804
48 1 7.517 18.0596 0.012437 -3.54149 0.00310231
49 1 9.65062 16.6376 -3.60256 -3.54079 0.000843242
50 1 9.30903 18.402 -1.79506 -3.53977 0.000408559
51 1 0.539453 -1.81268 -3.60256 -3.52396 0.908674
52 1 0.202648 -0.0692751 -1.79506 -3.38209 2.42084
53 1 1.90933 0.329258 -3.60256 -3.51715 0.14483
54 1 1.47405 2.08213 -1.79506 -3.51369 0.150085
55 1 1.09437 3.78491 0.0124361 -3.52869 0.1393
56 1 0.834926 5.56197 1.81994 -3.53921 0.100919
57 1 3.28685 2.44843 -3.60256 -3.53077 0.0131815
58 1 2.93386 4.18297 -1.79506 -3.53015 0.0167854
59 1 2.57769 5.94453 0.0124361 -3.54165 0.035651
60 1 2.24134 7.74864 1.81994 -3.52424 0.0388345
61 1 4.71233 4.56957 -3.60256 -3.53596 0.00424252
62 1 4.33997 6.33876 -1.79506 -3.53791 0.00559249
63 1 3.94995 8.13779 0.0124362 -3.5438 0.0154827
64 1 3.55878 9.93752 1.81994 -3.54285 0.0473414
65 1 6.0951 6.72393 -3.60256 -3.54086 0.00230686
66 1 5.71224 8.50091 -1.79506 -3.54368 0.00968564
67 1 5.35198 10.2698 0.0124369 -3.542 0.00630991
68 1 5.02261 12.0262 1.81994 -3.53454 0.00663519
69 1 7.49908 8.85496 -3.60256 -3.54083 0.00198533
70 1 7.14988 10.6152 -1.79506 -3.53904 0.000889724
71 1 6.80855 12.3791 0.012437 -3.53808 0.0027868
72 1 6.45969 14.1519 1.81994 -3.53812 0.00181498
73 1 8.93623 10.9713 -3.60256 -3.53909 0.000537419
74 1 8.58414 12.7392 -1.79506 -3.53959 0.000507189
75 1 8.22665 14.5138 0.012437 -3.54066 0.000431739
76 1 7.86699 16.2894 1.81994 -3.54153 0.00256804
77 1 10.359 13.0988 -3.60256 -3.54043 9.89264e-05
78 1 10.0022 14.8692 -1.79506 -3.54103 0.000644039
79 1 9.65062 16.6376 0.0124371 -3.54079 0.000843242
80 1 9.30903 18.402 1.81994 -3.53977 0.000408559
81 1 11.7842 15.2215 -3.60256 -3.54058 0.000259918
82 1 11.4371 16.9864 -1.79506 -3.54009 0.000133608
83 1 13.221 17.3383 -3.60256 -3.53987 0.000111057
84 1 1.13348 -5.40001 -3.60256 -3.52181 0.179197
85 1 0.853252 -3.65363 -1.79506 -3.54497 0.109389
86 1 0.539453 -1.81268 0.0124359 -3.52396 0.908616
87 1 0.202648 -0.0692751 1.81994 -3.38235 2.42084
88 1 2.62198 -3.25382 -3.60256 -3.5438 0.0297121
89 1 2.28731 -1.4851 -1.79506 -3.53309 0.0235762
90 1 1.90933 0.329258 0.0124362 -3.51715 0.144801
91 1 1.47405 2.08213 1.81994 -3.51416 0.150085
92 1 4.03294 -1.09475 -3.60256 -3.54402 0.0043011
93 1 3.65647 0.682443 -1.79506 -3.54146 0.00763871
94 1 3.28685 2.44843 0.0124362 -3.53077 0.0131815
95 1 2.93386 4.18297 1.81994 -3.53024 0.0167854
96 1 5.43097 1.04467 -3.60256 -3.54179 0.000822298
97 1 5.07385 2.806 -1.79506 -3.53781 0.00164515
98 1 4.71233 4.56957 0.0124368 -3.53596 0.00424252
99 1 4.33997 6.33876 1.81994 -3.53791 0.00559249
100 1 6.84586 3.17452 -3.60256 -3.53929 0.000809233
101 1 6.47654 4.94604 -1.79506 -3.53888 0.000775584
102 1 6.0951 6.72393 0.0124369 -3.54086 0.00230686
103 1 5.71224 8.50091 1.81994 -3.54368 0.00968564
104 1 8.23979 5.31616 -3.60256 -3.54063 0.000605611
105 1 7.86508 7.08874 -1.79506 -3.54129 0.00233146
106 1 7.49908 8.85496 0.012437 -3.54083 0.00198533
107 1 7.14988 10.6152 1.81994 -3.53904 0.000889724
108 1 9.64516 7.44503 -3.60256 -3.54054 0.000728062
109 1 9.28774 9.20839 -1.79506 -3.53957 0.000179274
110 1 8.93623 10.9713 0.012437 -3.53909 0.000537419
111 1 8.58414 12.7392 1.81994 -3.53959 0.000507189
112 1 11.0709 9.56398 -3.60256 -3.53958 7.99106e-05
113 1 10.7157 11.33 -1.79506 -3.53973 9.18711e-05
114 1 10.359 13.0988 0.0124371 -3.54043 9.89264e-05
115 1 10.0022 14.8692 1.81994 -3.54103 0.000644039
116 1 12.4935 11.6872 -3.60256 -3.54019 2.31716e-05
117 1 12.1373 13.4549 -1.79506 -3.54055 0.000164298
118 1 11.7842 15.2215 0.0124377 -3.54058 0.000259918
119 1 11.4371 16.9864 1.81994 -3.54009 0.000133608
120 1 13.9181 13.8085 -3.60256 -3.54035 8.25989e-05
121 1 13.5677 15.5736 -1.79506 -3.54016 4.93428e-05
122 1 13.221 17.3383 0.0124379 -3.53987 0.000111057
123 1 15.3494 15.9269 -3.60256 -3.54 4.05866e-05
124 1 15.0013 17.6928 -1.79506 -3.5399 0.000114687
125 1 16.7785 18.0487 -3.60256 -3.54001 7.65257e-05
126 1 0.691188 -10.9087 -3.60256 -3.45875 3.04559
127 1 0.394359 -9.13269 -1.79506 -3.30121 8.41204
128 1 2.03609 -8.79158 -3.60256 -3.48862 0.392943
129 1 1.57159 -7.03635 -1.79506 -3.47791 0.381777
130 1 1.13348 -5.40001 0.0124361 -3.52181 0.179139
131 1 0.853252 -3.65363 1.81994 -3.54443 0.109389
132 1 3.37308 -6.69846 -3.60256 -3.52648 0.0603865
133 1 3.00014 -4.97561 -1.79506 -3.5242 0.0291696
134 1 2.62198 -3.25382 0.0124361 -3.5438 0.0297121
135 1 2.28731 -1.4851 1.81994 -3.53322 0.0235762
136 1 4.78578 -4.60701 -3.60256 -3.53428 0.0119562
137 1 4.41283 -2.8575 -1.79506 -3.53685 0.00428121
138 1 4.03294 -1.09475 0.0124368 -3.54402 0.0043011
139 1 3.65647 0.682443 1.81994 -3.5415 0.00763871
140 1 6.18016 -2.48273 -3.60256 -3.53862 0.00238406
141 1 5.80185 -0.717962 -1.79506 -3.54135 0.00111109
142 1 5.43097 1.04467 0.0124369 -3.54179 0.000822298
143 1 5.07385 2.806 1.81994 -3.53781 0.00164515
144 1 7.57539 -0.354779 -3.60256 -3.5399 0.000779598
145 1 7.2098 1.40895 -1.79506 -3.53962 0.000290518
146 1 6.84586 3.17452 0.012437 -3.53929 0.000809233
147 1 6.47654 4.94604 1.81994 -3.53888 0.000775584
148 1 8.98138 1.77223 -3.60256 -3.53934 0.000371512
149 1 8.61309 3.5428 -1.79506 -3.53976 0.000217384
150 1 8.23979 5.31616 0.012437 -3.54063 0.000605611
151 1 7.86508 7.08874 1.81994 -3.54129 0.00233146
152 1 10.3802 3.9056 -3.60256 -3.54024 0.000286353
153 1 10.0107 5.67724 -1.79506 -3.54075 0.00073651
154 1 9.64516 7.44503 0.0124371 -3.54054 0.000728062
155 1 9.28774 9.20839 1.81994 -3.53957 0.000179274
156 1 11.7867 6.03249 -3.60256 -3.54035 0.000342973
157 1 11.427 7.79913 -1.79506 -3.53996 0.000120806
158 1 11.0709 9.56398 0.0124377 -3.53958 7.99106e-05
159 1 10.7157 11.33 1.81994 -3.53973 9.18711e-05
160 1 13.2065 8.15293 -3.60256 -3.53987 4.45887e-05
161 1 12.8501 9.91986 -1.79506 -3.53988 2.51088e-05
162 1 12.4935 11.6872 0.0124378 -3.54019 2.31716e-05
163 1 12.1373 13.4549 1.81994 -3.54055 0.000164298
164 1 14.6277 10.2745 -3.60256 -3.54013 2.53123e-05
165 1 14.272 12.042 -1.79506 -3.54031 5.66028e-05
166 1 13.9181 13.8085 0.0124379 -3.54035 8.25989e-05
167 1 13.5677 15.5736 1.81994 -3.54016 4.93428e-05
168 1 16.0511 12.3951 -3.60256 -3.54025 3.82151e-05
169 1 15.6991 14.1614 -1.79506 -3.54016 2.44521e-05
170 1 15.3494 15.9269 0.012438 -3.54 4.05866e-05
171 1 15.0013 17.6928 1.81994 -3.5399 0.000114687
172 1 17.4787 14.5145 -3.60256 -3.54008 2.23337e-05
173 1 17.1285 16.2813 -1.79506 -3.54 5.09325e-05
174 1 16.7785 18.0487 0.0124382 -3.54001 7.65257e-05
175 1 18.9051 16.6363 -3.60256 -3.54006 4.20943e-05
176 1 18.5536 18.4052 -1.79506 -3.5401 4.27322e-05
177 1 1.01155 -14.5629 -3.60256 -3.48425 0.463417
178 1 0.896013 -12.82 -1.79506 -3.51961 0.490554
179 1 0.691188 -10.9087 0.0124359 -3.45875 3.04559
180 1 0.394359 -9.13269 1.81994 -3.30058 8.41204
181 1 2.65059 -12.4695 -3.60256 -3.54303 0.124457
182 1 2.38249 -10.6641 -1.79506 -3.52981 0.0805791
183 1 2.03609 -8.79158 0.0124362 -3.48862 0.392914
184 1 1.57159 -7.03635 1.81994 -3.47848 0.381777
185 1 4.09032 -10.305 -3.60256 -3.54552 0.0188241
186 1 3.73731 -8.49072 -1.79506 -3.54158 0.0176837
187 1 3.37308 -6.69846 0.0124362 -3.52648 0.0603865
188 1 3.00014 -4.97561 1.81994 -3.52428 0.0291696
189 1 5.48602 -8.1589 -3.60256 -3.544 0.00295679
190 1 5.14228 -6.37626 -1.79506 -3.53871 0.00403586
191 1 4.78578 -4.60701 0.0124368 -3.53428 0.0119562
192 1 4.41283 -2.8575 1.81994 -3.53685 0.00428121
193 1 6.9034 -6.03439 -3.60256 -3.54027 0.000476333
194 1 6.54915 -4.25564 -1.79506 -3.53854 0.00213447
195 1 6.18016 -2.48273 0.0124369 -3.53862 0.00238406
196 1 5.80185 -0.717962 1.81994 -3.54135 0.00111109
197 1 8.30727 -3.90296 -3.60256 -3.54023 0.000229498
198 1 7.94328 -2.12504 -1.79506 -3.54004 0.000866076
199 1 7.57539 -0.354779 0.012437 -3.5399 0.000779598
200 1 7.2098 1.40895 1.81994 -3.53962 0.000290518
201 1 9.70771 -1.77196 -3.60256 -3.54029 0.00018528
202 1 9.34574 0.00185401 -1.79506 -3.53963 0.000339201
203 1 8.98138 1.77223 0.012437 -3.53934 0.000371512
204 1 8.61309 3.5428 1.81994 -3.53976 0.000217384
205 1 11.1124 0.357238 -3.60256 -3.53982 0.00012128
206 1 10.7483 2.13201 -1.79506 -3.53977 0.00017831
207 1 10.3802 3.9056 0.0124376 -3.54024 0.000286353
208 1 10.0107 5.67724 1.81994 -3.54075 0.00073651
209 1 12.515 2.48822 -3.60256 -3.54018 0.000141265
210 1 12.1503 4.26214 -1.79506 -3.54037 0.00032072
211 1 11.7867 6.03249 0.0124377 -3.54035 0.000342973
212 1 11.427 7.79913 1.81994 -3.53996 0.000120806
213 1 13.9229 4.61494 -3.60256 -3.54029 0.000171923
214 1 13.5638 6.38516 -1.79506 -3.54009 0.000108201
215 1 13.2065 8.15293 0.0124379 -3.53987 4.45887e-05
216 1 12.8501 9.91986 1.81994 -3.53988 2.51088e-05
217 1 15.3399 6.73704 -3.60256 -3.54005 3.9541e-05
218 1 14.9837 8.50621 -1.79506 -3.54001 2.78325e-05
219 1 14.6277 10.2745 0.012438 -3.54013 2.53123e-05
220 1 14.272 12.042 1.81994 -3.54031 5.66028e-05
221 1 16.76 8.85867 -3.60256 -3.54015 2.3309e-05
222 1 16.405 10.6275 -1.79506 -3.54022 3.34636e-05
223 1 16.0511 12.3951 0.0124381 -3.54025 3.82151e-05
224 1 15.6991 14.1614 1.81994 -3.54016 2.44521e-05
225 1 18.1824 10.9796 -3.60256 -3.54022 2.2129e-05
226 1 17.8299 12.7475 -1.79506 -3.54017 1.79993e-05
227 1 17.4787 14.5145 0.0124383 -3.54008 2.23337e-05
228 1 17.1285 16.2813 1.81994 -3.54 5.09325e-05
229 1 19.6074 13.1001 -3.60256 -3.54013 1.45022e-05
230 1 19.2562 14.8682 -1.79506 -3.54007 2.76777e-05
231 1 18.9051 16.6363 0.0124384 -3.54006 4.20943e-05
232 1 18.5536 18.4052 1.81994 -3.5401 4.27322e-05
233 1 21.032 15.2223 -3.60256 -3.54011 2.47975e-05
234 1 20.68 16.9917 -1.79506 -3.54011 2.83185e-05
235 1 22.4535 17.3472 -3.60256 -3.54015 1.77715e-05
236 1 1.8959 -17.9376 -3.60256 -3.45456 0.637874
237 1 1.38088 -16.1682 -1.79506 -3.43856 0.692952
238 1 1.01155 -14.5629 0.0124361 -3.48425 0.463417
239 1 0.896013 -12.82 1.81994 -3.51961 0.490554
240 1 3.2636 -15.8867 -3.60256 -3.5176 0.0856071
241 1 2.95964 -14.1949 -1.79506 -3.5089 0.0713817
242 1 2.65059 -12.4695 0.0124361 -3.54303 0.124457
243 1 2.38249 -10.6641 1.81994 -3.52985 0.0805791
244 1 4.77066 -13.845 -3.60256 -3.53101 0.019534
245 1 4.43795 -12.0938 -1.79506 -3.53637 0.0160591
246 1 4.09032 -10.305 0.0124368 -3.54552 0.0188241
247 1 3.73731 -8.49072 1.81994 -3.54161 0.0176837
248 1 6.19883 -11.7245 -3.60256 -3.53881 0.001628
249 1 5.83942 -9.94465 -1.79506 -3.5431 0.00217545
250 1 5.48602 -8.1589 0.0124369 -3.544 0.00295679
251 1 5.14228 -6.37626 1.81994 -3.53871 0.00403586
252 1 7.60307 -9.59028 -3.60256 -3.5408 0.000222359
253 1 7.25179 -7.81351 -1.79506 -3.54098 0.000299027
254 1 6.9034 -6.03439 0.012437 -3.54027 0.000476333
255 1 6.54915 -4.25564 1.81994 -3.53854 0.00213447
256 1 9.0177 -7.46192 -3.60256 -3.53998 8.19405e-05
257 1 8.66467 -5.68342 -1.79506 -3.54021 0.000174825
258 1 8.30727 -3.90296 0.012437 -3.54023 0.000229498
259 1 7.94328 -2.12504 1.81994 -3.54004 0.000866076
260 1 10.4264 -5.32944 -3.60256 -3.54024 3.34903e-05
261 1 10.0681 -3.54988 -1.79506 -3.54052 5.12544e-05
262 1 9.70771 -1.77196 0.0124371 -3.54029 0.00018528
263 1 9.34574 0.00185401 1.81994 -3.53963 0.000339201
264 1 11.8318 -3.19662 -3.60256 -3.54034 1.51427e-05
265 1 11.473 -1.41896 -1.79506 -3.54015 3.38631e-05
266 1 11.1124 0.357238 0.0124377 -3.53982 0.00012128
267 1 10.7483 2.13201 1.81994 -3.53977 0.00017831
268 1 13.2384 -1.06525 -3.60256 -3.54011 1.33958e-05
269 1 12.8779 0.712011 -1.79506 -3.54008 4.41162e-05
270 1 12.515 2.48822 0.0124378 -3.54018 0.000141265
271 1 12.1503 4.26214 1.81994 -3.54037 0.00032072
272 1 14.6445 1.06577 -3.60256 -3.54026 4.91357e-05
273 1 14.2836 2.8416 -1.79506 -3.54033 0.000127374
274 1 13.9229 4.61494 0.0124379 -3.54029 0.000171923
275 1 13.5638 6.38516 1.81994 -3.54009 0.000108201
276 1 16.0544 3.1934 -3.60256 -3.54031 7.53206e-05
277 1 15.6967 4.96628 -1.79506 -3.5402 6.35988e-05
278 1 15.3399 6.73704 0.012438 -3.54005 3.9541e-05
279 1 14.9837 8.50621 1.81994 -3.54001 2.78325e-05
280 1 17.4706 5.31733 -3.60256 -3.54017 2.33915e-05
281 1 17.1152 7.08861 -1.79506 -3.54012 1.96154e-05
282 1 16.76 8.85867 0.0124382 -3.54015 2.3309e-05
283 1 16.405 10.6275 1.81994 -3.54022 3.34636e-05
284 1 18.89 7.44 -3.60256 -3.54019 1.30799e-05
285 1 18.5359 9.21042 -1.79506 -3.54021 1.88186e-05
286 1 18.1824 10.9796 0.0124384 -3.54022 2.2129e-05
287 1 17.8299 12.7475 1.81994 -3.54017 1.79993e-05
288 1 20.3117 9.5619 -3.60256 -3.54022 1.05346e-05
289 1 19.9592 11.3314 -1.79506 -3.54019 1.08704e-05
290 1 19.6074 13.1001 0.0124391 -3.54013 1.45022e-05
291 1 19.2562 14.8682 1.81994 -3.54007 2.76777e-05
292 1 21.7352 11.6835 -3.60256 -3.54017 7.54387e-06
293 1 21.3836 13.453 -1.79506 -3.54013 1.53225e-05
294 1 21.032 15.2223 0.0124392 -3.54011 2.47975e-05
295 1 20.68 16.9917 1.81994 -3.54011 2.83185e-05
296 1 23.1584 13.8064 -3.60256 -3.54015 1.38812e-05
297 1 22.8062 15.5767 -1.79506 -3.54014 1.81444e-05
298 1 22.4535 17.3472 0.0124394 -3.54015 1.77715e-05
299 1 24.5794 15.9314 -3.60256 -3.54017 1.20459e-05
300 1 24.226 17.7027 -1.79506 -3.54017 1.09343e-05
301 1 25.998 18.0581 -3.60256 -3.54019 6.61437e-06
302 1 1.8959 -17.9376 0.0124362 -3.45456 0.637874
303 1 1.38088 -16.1682 1.81994 -3.43856 0.692952
304 1 3.60742 -17.6651 -1.79506 -3.5421 0.0661811
305 1 3.2636 -15.8867 0.0124362 -3.5176 0.0856071
306 1 2.95964 -14.1949 1.81994 -3.5089 0.0713817
307 1 5.38962 -17.365 -3.60256 -3.54406 0.0109503
308 1 5.08259 -15.6 -1.79506 -3.53538 0.00827095
309 1 4.77066 -13.845 0.0124368 -3.53101 0.019534
310 1 4.43795 -12.0938 1.81994 -3.53637 0.0160591
311 1 6.86946 -15.2745 -3.60256 -3.53855 0.00417756
312 1 6.54464 -13.5017 -1.79506 -3.53721 0.00533997
313 1 6.19883 -11.7245 0.0124369 -3.53881 0.001628
314 1 5.83942 -9.94465 1.81994 -3.5431 0.00217545
315 1 8.30626 -13.1514 -3.60256 -3.53984 0.000904224
316 1 7.95748 -11.3696 -1.79506 -3.54024 0.000187419
317 1 7.60307 -9.59028 0.012437 -3.5408 0.000222359
318 1 7.25179 -7.81351 1.81994 -3.54098 0.000299027
319 1 9.7199 -11.0182 -3.60256 -3.54053 4.2344e-05
320 1 9.36916 -9.23932 -1.79506 -3.54008 1.1879e-05
321 1 9.0177 -7.46192 0.012437 -3.53998 8.19405e-05
322 1 8.66467 -5.68342 1.81994 -3.54021 0.000174825
323 1 11.1345 -8.88725 -3.60256 -3.54005 3.19081e-05
324 1 10.7819 -7.10863 -1.79506 -3.53996 5.17119e-05
325 1 10.4264 -5.32944 0.0124376 -3.54024 3.34903e-05
326 1 10.0681 -3.54988 1.81994 -3.54052 5.12544e-05
327 1 12.5457 -6.7545 -3.60256 -3.54014 2.19301e-05
328 1 12.1896 -4.97536 -1.79506 -3.54027 1.23696e-05
329 1 11.8318 -3.19662 0.0124377 -3.54034 1.51427e-05
330 1 11.473 -1.41896 1.81994 -3.54015 3.38631e-05
331 1 13.9541 -4.62129 -3.60256 -3.54025 8.31226e-06
332 1 13.5969 -2.84304 -1.79506 -3.5402 5.91953e-06
333 1 13.2384 -1.06525 0.0124379 -3.54011 1.33958e-05
334 1 12.8779 0.712011 1.81994 -3.54008 4.41162e-05
335 1 15.3627 -2.48907 -3.60256 -3.54018 6.47392e-06
336 1 15.0043 -0.711395 -1.79506 -3.54018 1.37304e-05
337 1 14.6445 1.06577 0.012438 -3.54026 4.91357e-05
338 1 14.2836 2.8416 1.81994 -3.54033 0.000127374
339 1 16.7714 -0.357884 -3.60256 -3.54026 2.44077e-05
340 1 16.4129 1.41847 -1.79506 -3.54031 5.3088e-05
341 1 16.0544 3.1934 0.0124381 -3.54031 7.53206e-05
342 1 15.6967 4.96628 1.81994 -3.5402 6.35988e-05
343 1 18.1831 1.77054 -3.60256 -3.5403 3.7771e-05
344 1 17.8265 3.54466 -1.79506 -3.54025 3.40866e-05
345 1 17.4706 5.31733 0.0124383 -3.54017 2.33915e-05
346 1 17.1152 7.08861 1.81994 -3.54012 1.96154e-05
347 1 19.5992 3.89596 -3.60256 -3.54023 1.54897e-05
348 1 19.2444 5.66848 -1.79506 -3.5402 1.14427e-05
349 1 18.89 7.44 0.012439 -3.54019 1.30799e-05
350 1 18.5359 9.21042 1.81994 -3.54021 1.88186e-05
351 1 21.0184 6.01981 -3.60256 -3.54022 7.40288e-06
352 1 20.6648 7.79132 -1.79506 -3.54023 8.75926e-06
353 1 20.3117 9.5619 0.0124392 -3.54022 1.05346e-05
354 1 19.9592 11.3314 1.81994 -3.54019 1.08704e-05
355 1 22.4396 8.14281 -3.60256 -3.54023 4.47747e-06
356 1 22.0872 9.91352 -1.79506 -3.54021 4.73568e-06
357 1 21.7352 11.6835 0.0124393 -3.54017 7.54387e-06
358 1 21.3836 13.453 1.81994 -3.54013 1.53225e-05
359 1 23.8621 10.2656 -3.60256 -3.5402 3.24195e-06
360 1 23.5103 12.0361 -1.79506 -3.54017 7.60261e-06
361 1 23.1584 13.8064 0.0124394 -3.54015 1.38812e-05
362 1 22.8062 15.5767 1.81994 -3.54014 1.81444e-05
363 1 25.2844 12.3892 -3.60256 -3.54018 7.38085e-06
364 1 24.9321 14.1603 -1.79506 -3.54017 1.07878e-05
365 1 24.5794 15.9314 0.0124396 -3.54017 1.20459e-05
366 1 24.226 17.7027 1.81994 -3.54017 1.09343e-05
367 1 26.705 14.5144 -3.60256 -3.54018 7.63123e-06
368 1 26.3518 16.2862 -1.79506 -3.54018 7.60346e-06
369 1 25.998 18.0581 0.0124397 -3.54019 6.61437e-06
370 1 28.1237 16.6411 -3.60256 -3.5402 4.61922e-06
371 1 27.7695 18.4135 -1.79506 -3.5402 3.88619e-06
372 1 3.60742 -17.6651 1.81994 -3.5421 0.0661811
373 1 5.38962 -17.365 0.0124369 -3.54406 0.0109503
374 1 5.08259 -15.6 1.81994 -3.53538 0.00827095
375 1 7.18723 -17.0419 -1.79506 -3.54002 0.00192431
376 1 6.86946 -15.2745 0.012437 -3.53855 0.00417756
377 1 6.54464 -13.5017 1.81994 -3.53721 0.00533997
378 1 8.9761 -16.6998 -3.60256 -3.53918 0.00137528
379 1 8.64463 -14.9298 -1.79506 -3.5394 0.00213166
380 1 8.30626 -13.1514 0.012437 -3.53984 0.000904224
381 1 7.95748 -11.3696 1.81994 -3.54024 0.000187419
382 1 10.4148 -14.5761 -3.60256 -3.54001 0.000657202
383 1 10.0691 -12.7983 -1.79506 -3.54055 0.000198556
384 1 9.7199 -11.0182 0.0124371 -3.54053 4.2344e-05
385 1 9.36916 -9.23932 1.81994 -3.54008 1.1879e-05
386 1 11.8352 -12.4436 -3.60256 -3.54049 8.90419e-05
387 1 11.4853 -10.6657 -1.79506 -3.54037 3.98848e-05
388 1 11.1345 -8.88725 0.0124377 -3.54005 3.19081e-05
389 1 10.7819 -7.10863 1.81994 -3.53996 5.17119e-05
390 1 13.2519 -10.3112 -3.60256 -3.54025 4.85364e-05
391 1 12.8997 -8.53331 -1.79506 -3.54015 3.86453e-05
392 1 12.5457 -6.7545 0.0124378 -3.54014 2.19301e-05
393 1 12.1896 -4.97536 1.81994 -3.54027 1.23696e-05
394 1 14.6654 -8.17797 -3.60256 -3.54023 2.83227e-05
395 1 14.3104 -6.3998 -1.79506 -3.54024 1.49521e-05
396 1 13.9541 -4.62129 0.0124379 -3.54025 8.31226e-06
397 1 13.5969 -2.84304 1.81994 -3.5402 5.91953e-06
398 1 16.0763 -6.04461 -3.60256 -3.54026 1.28997e-05
399 1 15.7199 -4.26689 -1.79506 -3.54022 7.96253e-06
400 1 15.3627 -2.48907 0.012438 -3.54018 6.47392e-06
401 1 15.0043 -0.711395 1.81994 -3.54018 1.37304e-05
402 1 17.4868 -3.91211 -3.60256 -3.54023 9.12446e-06
403 1 17.1295 -2.13493 -1.79506 -3.54022 1.10888e-05
404 1 16.7714 -0.357884 0.0124382 -3.54026 2.44077e-05
405 1 16.4129 1.41847 1.81994 -3.54031 5.3088e-05
406 1 18.8976 -1.78087 -3.60256 -3.54027 1.69189e-05
407 1 18.5403 -0.00479567 -1.79506 -3.54029 2.84059e-05
408 1 18.1831 1.77054 0.0124384 -3.5403 3.7771e-05
409 1 17.8265 3.54466 1.81994 -3.54025 3.40866e-05
410 1 20.3106 0.348047 -3.60256 -3.54029 2.29776e-05
411 1 19.9546 2.12245 -1.79506 -3.54027 2.16111e-05
412 1 19.5992 3.89596 0.0124391 -3.54023 1.54897e-05
413 1 19.2444 5.66848 1.81994 -3.5402 1.14427e-05
414 1 21.727 2.47448 -3.60256 -3.54025 1.22247e-05
415 1 21.3725 4.2475 -1.79506 -3.54023 8.63886e-06
416 1 21.0184 6.01981 0.0124392 -3.54022 7.40288e-06
417 1 20.6648 7.79132 1.81994 -3.54023 8.75926e-06
418 1 23.146 4.59934 -3.60256 -3.54024 5.60379e-06
419 1 22.7925 6.37139 -1.79506 -3.54024 4.7242e-06
420 1 22.4396 8.14281 0.0124394 -3.54023 4.47747e-06
421 1 22.0872 9.91352 1.81994 -3.54021 4.73568e-06
422 1 24.5668 6.7233 -3.60256 -3.54023 2.45148e-06
423 1 24.2142 8.49467 -1.79506 -3.54022 1.97527e-06
424 1 23.8621 10.2656 0.0124395 -3.5402 3.24195e-06
425 1 23.5103 12.0361 1.81994 -3.54017 7.60261e-06
426 1 25.9886 8.84704 -3.60256 -3.54021 1.54177e-06
427 1 25.6365 10.6182 -1.79506 -3.54019 3.68161e-06
428 1 25.2844 12.3892 0.0124397 -3.54018 7.38085e-06
429 1 24.9321 14.1603 1.81994 -3.54017 1.07878e-05
430 1 27.4102 10.9714 -3.60256 -3.54019 4.096e-06
431 1 27.0578 12.7429 -1.79506 -3.54019 6.33323e-06
432 1 26.705 14.5144 0.0124398 -3.54018 7.63123e-06
433 1 26.3518 16.2862 1.81994 -3.54018 7.60346e-06
434 1 28.8306 13.0969 -3.60256 -3.5402 4.8989e-06
435 1 28.4774 14.8689 -1.79506 -3.54019 5.04924e-06
436 1 28.1237 16.6411 0.01244 -3.5402 4.61922e-06
437 1 27.7695 18.4135 1.81994 -3.5402 3.88619e-06
438 1 30.2493 15.2236 -3.60256 -3.5402 3.14443e-06
439 1 29.8953 16.9961 -1.79506 -3.5402 2.74096e-06
440 1 31.6667 17.3511 -3.60256 -3.54021 1.67393e-06
441 1 7.18723 -17.0419 1.81994 -3.54002 0.00192431
442 1 8.9761 -16.6998 0.012437 -3.53918 0.00137528
443 1 8.64463 -14.9298 1.81994 -3.5394 0.00213166
444 1 11.0957 -18.1152 -3.60256 -3.53952 0.000354657
445 1 10.7563 -16.3484 -1.79506 -3.53947 0.000804253
446 1 10.4148 -14.5761 0.0124371 -3.54001 0.000657202
447 1 10.0691 -12.7983 1.81994 -3.54055 0.000198556
448 1 12.5314 -15.9926 -3.60256 -3.53989 0.000318394
449 1 12.1843 -14.2197 -1.79506 -3.54025 0.000180776
450 1 11.8352 -12.4436 0.0124377 -3.54049 8.90419e-05
451 1 11.4853 -10.6657 1.81994 -3.54037 3.98848e-05
452 1 13.9543 -13.8625 -3.60256 -3.54028 6.48927e-05
453 1 13.6033 -12.0877 -1.79506 -3.54032 5.29416e-05
454 1 13.2519 -10.3112 0.0124379 -3.54025 4.85364e-05
455 1 12.8997 -8.53331 1.81994 -3.54015 3.86453e-05
456 1 15.3722 -11.7308 -3.60256 -3.54023 3.49593e-05
457 1 15.0192 -9.95511 -1.79506 -3.54022 3.71351e-05
458 1 14.6654 -8.17797 0.012438 -3.54023 2.83227e-05
459 1 14.3104 -6.3998 1.81994 -3.54024 1.49521e-05
460 1 16.787 -9.59823 -3.60256 -3.54023 2.18623e-05
461 1 16.432 -7.82188 -1.79506 -3.54025 1.84257e-05
462 1 16.0763 -6.04461 0.0124381 -3.54026 1.28997e-05
463 1 15.7199 -4.26689 1.81994 -3.54022 7.96253e-06
464 1 18.1996 -7.46544 -3.60256 -3.54025 1.16213e-05
465 1 17.8434 -5.68903 -1.79506 -3.54024 1.05993e-05
466 1 17.4868 -3.91211 0.0124383 -3.54023 9.12446e-06
467 1 17.1295 -2.13493 1.81994 -3.54022 1.10888e-05
468 1 19.6116 -5.33328 -3.60256 -3.54024 8.72972e-06
469 1 19.2547 -3.55717 -1.79506 -3.54025 1.0911e-05
470 1 18.8976 -1.78087 0.012439 -3.54027 1.69189e-05
471 1 18.5403 -0.00479567 1.81994 -3.54029 2.84059e-05
472 1 21.0238 -3.20232 -3.60256 -3.54026 1.23898e-05
473 1 20.6671 -1.42699 -1.79506 -3.54028 1.83902e-05
474 1 20.3106 0.348047 0.0124392 -3.54029 2.29776e-05
475 1 19.9546 2.12245 1.81994 -3.54027 2.16111e-05
476 1 22.4379 -1.07326 -3.60256 -3.54028 1.53156e-05
477 1 22.0821 0.700851 -1.79506 -3.54027 1.54334e-05
478 1 21.727 2.47448 0.0124393 -3.54025 1.22247e-05
479 1 21.3725 4.2475 1.81994 -3.54023 8.63886e-06
480 1 23.8545 1.05374 -3.60256 -3.54025 9.78535e-06
481 1 23.5 2.82676 -1.79506 -3.54024 7.50598e-06
482 1 23.146 4.59934 0.0124394 -3.54024 5.60379e-06
483 1 22.7925 6.37139 1.81994 -3.54024 4.7242e-06
484 1 25.2733 3.17929 -3.60256 -3.54024 4.72359e-06
485 1 24.9198 4.95149 -1.79506 -3.54024 3.46721e-06
486 1 24.5668 6.7233 0.0124396 -3.54023 2.45148e-06
487 1 24.2142 8.49467 1.81994 -3.54022 1.97527e-06
488 1 26.6937 5.30399 -3.60256 -3.54023 1.8518e-06
489 1 26.3409 7.07565 -1.79506 -3.54023 1.21538e-06
490 1 25.9886 8.84704 0.0124397 -3.54021 1.54177e-06
491 1 25.6365 10.6182 1.81994 -3.54019 3.68161e-06
492 1 28.1149 7.42846 -3.60256 -3.54022 9.94707e-07
493 1 27.7625 9.19994 -1.79506 -3.5402 2.02544e-06
494 1 27.4102 10.9714 0.0124399 -3.54019 4.096e-06
495 1 27.0578 12.7429 1.81994 -3.54019 6.33323e-06
496 1 29.5361 9.55334 -3.60256 -3.5402 2.50905e-06
497 1 29.1834 11.325 -1.79506 -3.5402 3.9636e-06
498 1 28.8306 13.0969 0.0124401 -3.5402 4.8989e-06
499 1 28.4774 14.8689 1.81994 -3.54019 5.04924e-06
500 1 30.9562 11.6791 -3.60256 -3.5402 3.35769e-06
501 1 30.6029 13.4512 -1.79506 -3.5402 3.42083e-06
502 1 30.2493 15.2236 0.0124402 -3.5402 3.14443e-06
503 1 29.8953 16.9961 1.81994 -3.5402 2.74096e-06
504 1 32.3749 13.8058 -3.60256 -3.5402 2.11791e-06
505 1 32.021 15.5784 -1.79506 -3.54021 1.91241e-06
506 1 31.6667 17.3511 0.0124403 -3.54021 1.67393e-06
507 1 33.7926 15.9332 -3.60256 -3.54021 1.32197e-06
508 1 33.438 17.7061 -1.79506 -3.54022 1.10151e-06
509 1 35.2093 18.0611 -3.60256 -3.54023 6.6463e-07
510 1 11.0957 -18.1152 0.0124377 -3.53952 0.000354657
511 1 10.7563 -16.3484 1.81994 -3.53947 0.000804253
512 1 12.8765 -17.7617 -1.79506 -3.53972 0.000293439
513 1 12.5314 -15.9926 0.0124378 -3.53989 0.000318394
514 1 12.1843 -14.2197 1.81994 -3.54025 0.000180776
515 1 14.6534 -17.4055 -3.60256 -3.53995 0.00015431
516 1 14.3045 -15.6353 -1.79506 -3.54012 0.000111684
517 1 13.9543 -13.8625 0.0124379 -3.54028 6.48927e-05
518 1 13.6033 -12.0877 1.81994 -3.54032 5.29416e-05
519 1 16.0767 -15.2775 -3.60256 -3.54019 4.42209e-05
520 1 15.7247 -13.5049 -1.79506 -3.54024 3.29161e-05
521 1 15.3722 -11.7308 0.012438 -3.54023 3.49593e-05
522 1 15.0192 -9.95511 1.81994 -3.54022 3.71351e-05
523 1 17.4952 -13.1471 -3.60256 -3.54021 1.94403e-05
524 1 17.1414 -11.3734 -1.79506 -3.54021 2.13192e-05
525 1 16.787 -9.59823 0.0124382 -3.54023 2.18623e-05
526 1 16.432 -7.82188 1.81994 -3.54025 1.84257e-05
527 1 18.9108 -11.0157 -3.60256 -3.54021 1.12608e-05
528 1 18.5554 -9.24106 -1.79506 -3.54023 1.16133e-05
529 1 18.1996 -7.46544 0.0124384 -3.54025 1.16213e-05
530 1 17.8434 -5.68903 1.81994 -3.54024 1.05993e-05
531 1 20.3244 -8.88393 -3.60256 -3.54023 6.00513e-06
532 1 19.9681 -7.10892 -1.79506 -3.54024 7.34228e-06
533 1 19.6116 -5.33328 0.0124391 -3.54024 8.72972e-06
534 1 19.2547 -3.55717 1.81994 -3.54025 1.0911e-05
535 1 21.7374 -6.75254 -3.60256 -3.54023 5.13173e-06
536 1 21.3807 -4.97758 -1.79506 -3.54025 7.9872e-06
537 1 21.0238 -3.20232 0.0124392 -3.54026 1.23898e-05
538 1 20.6671 -1.42699 1.81994 -3.54028 1.83902e-05
539 1 23.1507 -4.62212 -3.60256 -3.54025 7.79064e-06
540 1 22.7941 -2.84766 -1.79506 -3.54027 1.19807e-05
541 1 22.4379 -1.07326 0.0124394 -3.54028 1.53156e-05
542 1 22.0821 0.700851 1.81994 -3.54027 1.54334e-05
543 1 24.5654 -2.49323 -3.60256 -3.54026 9.85396e-06
544 1 24.2096 -0.719619 -1.79506 -3.54026 1.09114e-05
545 1 23.8545 1.05374 0.0124395 -3.54025 9.78535e-06
546 1 23.5 2.82676 1.81994 -3.54024 7.50598e-06
547 1 25.9821 -0.366003 -3.60256 -3.54025 7.19486e-06
548 1 25.6274 1.40678 -1.79506 -3.54024 6.12856e-06
549 1 25.2733 3.17929 0.0124397 -3.54024 4.72359e-06
550 1 24.9198 4.95149 1.81994 -3.54024 3.46721e-06
551 1 27.4007 1.75995 -3.60256 -3.54024 3.6681e-06
552 1 27.047 3.53209 -1.79506 -3.54024 2.74139e-06
553 1 26.6937 5.30399 0.0124398 -3.54023 1.8518e-06
554 1 26.3409 7.07565 1.81994 -3.54023 1.21538e-06
555 1 28.8207 3.88515 -3.60256 -3.54023 1.4124e-06
556 1 28.4676 5.65687 -1.79506 -3.54022 9.72574e-07
557 1 28.1149 7.42846 0.01244 -3.54022 9.94707e-07
558 1 27.7625 9.19994 1.81994 -3.5402 2.02544e-06
559 1 30.2414 6.01012 -3.60256 -3.54021 6.99742e-07
560 1 29.8887 7.78172 -1.79506 -3.54021 1.25114e-06
561 1 29.5361 9.55334 0.0124401 -3.5402 2.50905e-06
562 1 29.1834 11.325 1.81994 -3.5402 3.9636e-06
563 1 31.6621 8.13538 -3.60256 -3.54021 1.59963e-06
564 1 31.3092 9.90716 -1.79506 -3.54021 2.69572e-06
565 1 30.9562 11.6791 0.0124403 -3.5402 3.35769e-06
566 1 30.6029 13.4512 1.81994 -3.5402 3.42083e-06
567 1 33.082 10.2613 -3.60256 -3.54021 2.49573e-06
568 1 32.7286 12.0335 -1.79506 -3.54021 2.39857e-06
569 1 32.3749 13.8058 0.0124404 -3.5402 2.11791e-06
570 1 32.021 15.5784 1.81994 -3.54021 1.91241e-06
571 1 34.5007 12.3881 -3.60256 -3.5402 1.30843e-06
572 1 34.1468 14.1606 -1.79506 -3.5402 1.24272e-06
573 1 33.7926 15.9332 0.0124404 -3.54021 1.32197e-06
574 1 33.438 17.7061 1.81994 -3.54022 1.10151e-06
575 1 35.9186 14.5154 -3.60256 -3.54021 1.03429e-06
576 1 35.5641 16.2881 -1.79506 -3.54022 1.20498e-06
577 1 35.2093 18.0611 0.0124405 -3.54023 6.6463e-07
578 1 37.3357 16.643 -3.60256 -3.54024 1.14237e-06
579 1 36.9806 18.416 -1.79506 -3.54023 1.27422e-07
580 1 12.8765 -17.7617 1.81994 -3.53972 0.000293439