ITEM: TIMESTEP
0
ITEM: NUMBER OF ATOMS
2504
ITEM: BOX BOUNDS xy xz yz mm pp pp
-5.5498871899999997e+01 5.5498871899999997e+01 0.0000000000000000e+00
-1.8432957300000002e+01 1.8432957300000002e+01 0.0000000000000000e+00
-3.6150000000000002e+00 3.6150000000000002e+00 0.0000000000000000e+00
ITEM: ATOMS id type x y z c_eng c_csym
1 1 0.629045 16.7888 -3.59605 -3.43731 3.48003
2 1 0.294078 -18.256 -1.78855 -3.2785 8.97911
3 1 0.970034 13.0652 -3.59605 -3.50571 0.283052
4 1 0.83459 14.8263 -1.78855 -3.50399 0.580446
5 1 0.629045 16.7888 0.0189516 -3.43731 3.48003
6 1 0.294078 -18.256 1.82645 -3.2785 8.97911
7 1 2.56282 15.1876 -3.59605 -3.53972 0.117738
8 1 2.27837 17.0318 -1.78855 -3.51778 0.0888874
9 1 3.96252 17.3848 -3.59605 -3.54341 0.031304
10 1 0.464765 7.38345 -3.59605 -3.5225 0.362979
11 1 0.125663 9.11668 -1.78855 -3.42787 1.12896
12 1 1.77572 9.58448 -3.59605 -3.51688 0.124735
13 1 1.30186 11.3565 -1.78855 -3.51865 0.248717
14 1 0.970034 13.0652 0.0189517 -3.50571 0.283052
15 1 0.83459 14.8263 1.82645 -3.50399 0.580446
16 1 3.16291 11.6879 -3.59605 -3.5287 0.0280007
17 1 2.86304 13.4079 -1.78855 -3.51881 0.0587037
18 1 2.56282 15.1876 0.0189517 -3.53972 0.117738
19 1 2.27837 17.0318 1.82645 -3.51778 0.0888874
20 1 4.65979 13.7802 -3.59605 -3.53382 0.0126449
21 1 4.32027 15.5583 -1.78855 -3.53762 0.0186351
22 1 3.96252 17.3848 0.0189518 -3.54341 0.031304
23 1 6.07504 15.9307 -3.59605 -3.54119 0.00390106
24 1 5.71529 17.721 -1.78855 -3.54507 0.0169304
25 1 7.504 18.0553 -3.59605 -3.54185 0.00463038
26 1 1.12906 3.78322 -3.59605 -3.54351 0.0472405
27 1 0.801768 5.57695 -1.78855 -3.54614 0.0149526
28 1 0.464765 7.38345 0.0189516 -3.5225 0.362845
29 1 0.125663 9.11668 1.82645 -3.42887 1.12896
30 1 2.55782 5.94659 -3.59605 -3.54089 0.0114284
31 1 2.2105 7.73986 -1.78855 -3.52472 0.0363418
32 1 1.77572 9.58448 0.0189517 -3.51688 0.124735
33 1 1.30186 11.3565 1.82645 -3.51869 0.248717
34 1 3.92556 8.13501 -3.59605 -3.54211 0.0117789
35 1 3.52516 9.92986 -1.78855 -3.54284 0.0462059
36 1 3.16291 11.6879 0.0189518 -3.5287 0.0280007
37 1 2.86304 13.4079 1.82645 -3.51881 0.0587037
38 1 5.32333 10.2684 -3.59605 -3.54119 0.00707399
39 1 4.98992 12.0219 -1.78855 -3.53433 0.00530433
40 1 4.65979 13.7802 0.0189526 -3.53382 0.0126449
41 1 4.32027 15.5583 1.82645 -3.53762 0.0186351
42 1 6.78237 12.377 -3.59605 -3.53768 0.00246229
43 1 6.43514 14.1472 -1.78855 -3.53794 0.00202029
44 1 6.07504 15.9307 0.0189526 -3.54119 0.00390106
45 1 5.71529 17.721 1.82645 -3.54507 0.0169304
46 1 8.20673 14.5101 -3.59605 -3.5405 0.000528866
47 1 7.84949 16.2846 -1.78855 -3.54165 0.00325686
48 1 7.504 18.0553 0.0189527 -3.54185 0.00463038
49 1 9.63767 16.6316 -3.59605 -3.5408 0.00122554
50 1 9.30089 18.3938 -1.78855 -3.53985 0.000760141
51 1 0.487155 -1.85742 -3.59605 -3.52605 0.206953
52 1 0.160158 -0.147511 -1.78855 -3.46741 0.506629
53 1 1.91398 0.268516 -3.59605 -3.53277 0.0266044
54 1 1.51331 2.02365 -1.78855 -3.53532 0.0229135
55 1 1.12906 3.78322 0.0189517 -3.54351 0.0471059
56 1 0.801768 5.57695 1.82645 -3.54517 0.0149526
57 1 3.29253 2.41967 -3.59605 -3.53706 0.00188216
58 1 2.9196 4.17568 -1.78855 -3.53886 0.00292768
59 1 2.55782 5.94659 0.0189517 -3.54089 0.0114284
60 1 2.2105 7.73986 1.82645 -3.52488 0.0363418
61 1 4.6942 4.56386 -3.59605 -3.53814 0.0010733
62 1 4.31931 6.33614 -1.78855 -3.53773 0.004444
63 1 3.92556 8.13501 0.0189518 -3.54211 0.0117789
64 1 3.52516 9.92986 1.82645 -3.54284 0.0462059
65 1 6.07472 6.72314 -3.59605 -3.54101 0.00243889
66 1 5.68839 8.50056 -1.78855 -3.54325 0.00998
67 1 5.32333 10.2684 0.0189526 -3.54119 0.00707399
68 1 4.98992 12.0219 1.82645 -3.53433 0.00530433
69 1 7.47669 8.85681 -3.59605 -3.54086 0.00243641
70 1 7.12479 10.6157 -1.78855 -3.53884 0.000759838
71 1 6.78237 12.377 0.0189527 -3.53768 0.00246229
72 1 6.43514 14.1472 1.82645 -3.53794 0.00202029
73 1 8.91525 10.9726 -3.59605 -3.53902 0.000422559
74 1 8.56311 12.7379 -1.78855 -3.53937 0.0004566
75 1 8.20673 14.5101 0.0189527 -3.5405 0.000528866
76 1 7.84949 16.2846 1.82645 -3.54165 0.00325686
77 1 10.3424 13.0979 -3.59605 -3.54033 0.000132308
78 1 9.9868 14.8656 -1.78855 -3.54094 0.000825996
79 1 9.63767 16.6316 0.0189527 -3.5408 0.00122554
80 1 9.30089 18.3938 1.82645 -3.53985 0.000760141
81 1 11.7736 15.2176 -3.59605 -3.54052 0.000377911
82 1 11.4295 16.9792 -1.78855 -3.54001 0.000238893
83 1 13.2185 17.3303 -3.59605 -3.53972 0.000181964
84 1 1.18865 -5.38518 -3.59605 -3.5389 0.0965868
85 1 0.829693 -3.63819 -1.78855 -3.55086 0.0411705
86 1 0.487155 -1.85742 0.0189516 -3.52606 0.206818
87 1 0.160158 -0.147511 1.82645 -3.46747 0.506629
88 1 2.62531 -3.24226 -3.59605 -3.54223 0.0101962
89 1 2.28055 -1.50293 -1.78855 -3.53451 0.0123126
90 1 1.91398 0.268516 0.0189517 -3.53277 0.0265371
91 1 1.51331 2.02365 1.82645 -3.53544 0.0229135
92 1 4.05203 -1.10595 -3.59605 -3.54076 0.00230943
93 1 3.67402 0.654566 -1.78855 -3.5402 0.000531756
94 1 3.29253 2.41967 0.0189518 -3.53706 0.00188216
95 1 2.9196 4.17568 1.82645 -3.53902 0.00292768
96 1 5.44371 1.0388 -3.59605 -3.54102 0.000319877
97 1 5.06799 2.79975 -1.78855 -3.5396 0.000151803
98 1 4.6942 4.56386 0.0189526 -3.53814 0.0010733
99 1 4.31931 6.33614 1.82645 -3.53773 0.004444
100 1 6.83924 3.17859 -3.59605 -3.53956 0.000320077
101 1 6.46082 4.94688 -1.78855 -3.53914 0.000471131
102 1 6.07472 6.72314 0.0189526 -3.54101 0.00243889
103 1 5.68839 8.50056 1.82645 -3.54325 0.00998
104 1 8.22675 5.32229 -3.59605 -3.54046 0.00082184
105 1 7.84657 7.09211 -1.78855 -3.54129 0.00265289
106 1 7.47669 8.85681 0.0189527 -3.54086 0.00243641
107 1 7.12479 10.6157 1.82645 -3.53884 0.000759838
108 1 9.62936 7.45159 -3.59605 -3.54042 0.000976521
109 1 9.26846 9.21228 -1.78855 -3.53957 0.00025058
110 1 8.91525 10.9726 0.0189527 -3.53902 0.000422559
111 1 8.56311 12.7379 1.82645 -3.53937 0.0004566
112 1 11.0555 9.56914 -3.59605 -3.5395 7.50514e-05
113 1 10.6991 11.332 -1.78855 -3.53966 6.89179e-05
114 1 10.3424 13.0979 0.0189527 -3.54033 0.000132308
115 1 9.9868 14.8656 1.82645 -3.54094 0.000825996
116 1 12.481 11.6896 -3.59605 -3.54011 4.72599e-05
117 1 12.1252 13.4541 -1.78855 -3.54049 0.000232737
118 1 11.7736 15.2176 0.0189536 -3.54052 0.000377911
119 1 11.4295 16.9792 1.82645 -3.54001 0.000238893
120 1 13.9104 13.8075 -3.59605 -3.54029 0.000128204
121 1 13.5619 15.5692 -1.78855 -3.54008 8.73406e-05
122 1 13.2185 17.3303 0.0189536 -3.53972 0.000181964
123 1 15.348 15.922 -3.59605 -3.5399 7.3712e-05
124 1 15.0029 17.6847 -1.78855 -3.53975 0.00021408
125 1 16.783 18.0412 -3.59605 -3.53988 0.000167461
126 1 0.718372 -10.8903 -3.59605 -3.46446 2.73418
127 1 0.452288 -9.13075 -1.78855 -3.30149 8.08468
128 1 2.10713 -8.80223 -3.59605 -3.49777 0.295812
129 1 1.66194 -7.0435 -1.78855 -3.49454 0.277291
130 1 1.18865 -5.38518 0.0189517 -3.5389 0.0964521
131 1 0.829693 -3.63819 1.82645 -3.55 0.0411705
132 1 3.42394 -6.69076 -3.59605 -3.52931 0.060453
133 1 3.02059 -4.95256 -1.78855 -3.52989 0.0301533
134 1 2.62531 -3.24226 0.0189517 -3.54224 0.0101962
135 1 2.28055 -1.50293 1.82645 -3.53475 0.0123126
136 1 4.80612 -4.59181 -3.59605 -3.53526 0.0146654
137 1 4.43032 -2.84952 -1.78855 -3.53541 0.00648923
138 1 4.05203 -1.10595 0.0189526 -3.54076 0.00230943
139 1 3.67402 0.654566 1.82645 -3.54027 0.000531756
140 1 6.20434 -2.47837 -3.59605 -3.5375 0.00447003
141 1 5.82493 -0.719556 -1.78855 -3.53954 0.0014226
142 1 5.44371 1.0388 0.0189526 -3.54102 0.000319877
143 1 5.06799 2.79975 1.82645 -3.5396 0.000151803
144 1 7.59298 -0.349407 -3.59605 -3.53938 0.00145932
145 1 7.2161 1.41485 -1.78855 -3.5397 0.000598737
146 1 6.83924 3.17859 0.0189527 -3.53956 0.000320077
147 1 6.46082 4.94688 1.82645 -3.53914 0.000471131
148 1 8.98405 1.78267 -3.59605 -3.53938 0.000635671
149 1 8.60723 3.55197 -1.78855 -3.53961 0.00038205
150 1 8.22675 5.32229 0.0189527 -3.54046 0.00082184
151 1 7.84657 7.09211 1.82645 -3.54129 0.00265289
152 1 10.3748 3.91688 -3.59605 -3.54003 0.000594654
153 1 9.99972 5.68651 -1.78855 -3.54053 0.00103238
154 1 9.62936 7.45159 0.0189527 -3.54042 0.000976521
155 1 9.26846 9.21228 1.82645 -3.53957 0.00025058
156 1 11.7774 6.04291 -3.59605 -3.54019 0.000568915
157 1 11.4141 7.80724 -1.78855 -3.53983 0.000239552
158 1 11.0555 9.56914 0.0189535 -3.5395 7.50514e-05
159 1 10.6991 11.332 1.82645 -3.53966 6.89179e-05
160 1 13.1964 8.16122 -3.59605 -3.53976 0.000108104
161 1 12.8383 9.92542 -1.78855 -3.53978 4.54558e-05
162 1 12.481 11.6896 0.0189536 -3.54011 4.72599e-05
163 1 12.1252 13.4541 1.82645 -3.54049 0.000232737
164 1 14.6193 10.2797 -3.59605 -3.54004 6.49805e-05
165 1 14.2635 12.0443 -1.78855 -3.54023 9.82582e-05
166 1 13.9104 13.8075 0.0189536 -3.54029 0.000128204
167 1 13.5619 15.5692 1.82645 -3.54008 8.73406e-05
168 1 16.0464 12.3967 -3.59605 -3.54018 7.07053e-05
169 1 15.6956 14.1599 -1.78855 -3.54009 4.68035e-05
170 1 15.348 15.922 0.0189537 -3.5399 7.3712e-05
171 1 15.0029 17.6847 1.82645 -3.53975 0.00021408
172 1 17.4787 14.5125 -3.59605 -3.53999 4.59245e-05
173 1 17.1305 16.2763 -1.78855 -3.53989 0.00010108
174 1 16.783 18.0412 0.0189537 -3.53988 0.000167461
175 1 18.9096 16.6317 -3.59605 -3.53996 9.28747e-05
176 1 18.5598 18.3986 -1.78855 -3.54 0.000104086
177 1 1.00287 -14.5199 -3.59605 -3.48782 0.453854
178 1 0.894853 -12.7783 -1.78855 -3.5263 0.445863
179 1 0.718372 -10.8903 0.0189516 -3.46446 2.73418
180 1 0.452288 -9.13075 1.82645 -3.29952 8.08468
181 1 2.66891 -12.4575 -3.59605 -3.5425 0.126946
182 1 2.42559 -10.6623 -1.78855 -3.53187 0.0915019
183 1 2.10713 -8.80223 0.0189517 -3.49777 0.295745
184 1 1.66194 -7.0435 1.82645 -3.49512 0.277291
185 1 4.13947 -10.313 -3.59605 -3.5437 0.0233784
186 1 3.7972 -8.4959 -1.78855 -3.53962 0.0112291
187 1 3.42394 -6.69076 0.0189518 -3.52931 0.060453
188 1 3.02059 -4.95256 1.82645 -3.53003 0.0301533
189 1 5.52758 -8.15802 -3.59605 -3.54359 0.00276411
190 1 5.17227 -6.36458 -1.78855 -3.54014 0.0053212
191 1 4.80612 -4.59181 0.0189526 -3.53526 0.0146654
192 1 4.43032 -2.84952 1.82645 -3.53541 0.00648923
193 1 6.92691 -6.02636 -3.59605 -3.54103 0.000344949
194 1 6.57146 -4.24704 -1.78855 -3.53863 0.00267349
195 1 6.20434 -2.47837 0.0189526 -3.5375 0.00447003
196 1 5.82493 -0.719556 1.82645 -3.53954 0.0014226
197 1 8.32957 -3.89821 -3.59605 -3.53987 0.000421169
198 1 7.96573 -2.12026 -1.78855 -3.53934 0.00133468
199 1 7.59298 -0.349407 0.0189527 -3.53938 0.00145932
200 1 7.2161 1.41485 1.82645 -3.5397 0.000598737
201 1 9.72467 -1.76566 -3.59605 -3.54 0.000312655
202 1 9.35682 0.0109461 -1.78855 -3.5396 0.000665502
203 1 8.98405 1.78267 0.0189527 -3.53938 0.000635671
204 1 8.60723 3.55197 1.82645 -3.53961 0.00038205
205 1 11.1187 0.367492 -3.59605 -3.53984 0.000236804
206 1 10.7488 2.14375 -1.78855 -3.53971 0.000402067
207 1 10.3748 3.91688 0.0189535 -3.54003 0.000594654
208 1 9.99972 5.68651 1.82645 -3.54053 0.00103238
209 1 12.5138 2.49979 -3.59605 -3.54011 0.000309226
210 1 12.145 4.27381 -1.78855 -3.54022 0.000558718
211 1 11.7774 6.04291 0.0189536 -3.54019 0.000568915
212 1 11.4141 7.80724 1.82645 -3.53983 0.000239552
213 1 13.9178 4.62593 -3.59605 -3.54021 0.000312294
214 1 13.556 6.39535 -1.78855 -3.53998 0.000230527
215 1 13.1964 8.16122 0.0189536 -3.53976 0.000108104
216 1 12.8383 9.92542 1.82645 -3.53978 4.54558e-05
217 1 15.3336 6.74613 -3.59605 -3.53999 9.96953e-05
218 1 14.9762 8.51377 -1.78855 -3.53993 7.45327e-05
219 1 14.6193 10.2797 0.0189537 -3.54004 6.49805e-05
220 1 14.2635 12.0443 1.82645 -3.54023 9.82582e-05
221 1 16.7547 8.86495 -3.59605 -3.54009 5.91755e-05
222 1 16.3998 10.6318 -1.78855 -3.54016 7.1124e-05
223 1 16.0464 12.3967 0.0189537 -3.54018 7.07053e-05
224 1 15.6956 14.1599 1.82645 -3.54009 4.68035e-05
225 1 18.1798 10.9826 -3.59605 -3.54018 4.62362e-05
226 1 17.8283 12.7482 -1.78855 -3.54011 3.84291e-05
227 1 17.4787 14.5125 0.0189538 -3.53999 4.59245e-05
228 1 17.1305 16.2763 1.82645 -3.53989 0.00010108
229 1 19.6085 13.0998 -3.59605 -3.54008 3.19501e-05
230 1 19.2589 14.8657 -1.78855 -3.54 5.85928e-05
231 1 18.9096 16.6317 0.0189538 -3.53996 9.28747e-05
232 1 18.5598 18.3986 1.82645 -3.54 0.000104086
233 1 21.0365 15.2196 -3.59605 -3.54004 5.54535e-05
234 1 20.6858 16.9875 -1.78855 -3.54004 6.69199e-05
235 1 22.46 17.3435 -3.59605 -3.5401 4.28928e-05
236 1 1.89351 -17.9113 -3.59605 -3.45152 0.608877
237 1 1.37134 -16.131 -1.78855 -3.44273 0.671634
238 1 1.00287 -14.5199 0.0189517 -3.48782 0.453854
239 1 0.894853 -12.7783 1.82645 -3.5263 0.445863
240 1 3.2571 -15.8642 -3.59605 -3.51745 0.0954265
241 1 2.95887 -14.1733 -1.78855 -3.5089 0.0608109
242 1 2.66891 -12.4575 0.0189517 -3.5425 0.126946
243 1 2.42559 -10.6623 1.82645 -3.53195 0.0915019
244 1 4.78309 -13.841 -3.59605 -3.5303 0.0206616
245 1 4.4686 -12.0962 -1.78855 -3.53494 0.0229586
246 1 4.13947 -10.313 0.0189526 -3.5437 0.0233784
247 1 3.7972 -8.4959 1.82645 -3.53969 0.0112291
248 1 6.23278 -11.7333 -3.59605 -3.53758 0.00442322
249 1 5.88218 -9.9516 -1.78855 -3.54184 0.0020054
250 1 5.52758 -8.15802 0.0189526 -3.54359 0.00276411
251 1 5.17227 -6.36458 1.82645 -3.54014 0.0053212
252 1 7.63515 -9.59487 -3.59605 -3.54054 0.000146942
253 1 7.28008 -7.81074 -1.78855 -3.54158 0.00047665
254 1 6.92691 -6.02636 0.0189527 -3.54103 0.000344949
255 1 6.57146 -4.24704 1.82645 -3.53863 0.00267349
256 1 9.0394 -7.46075 -3.59605 -3.54037 2.4476e-05
257 1 8.68583 -5.67936 -1.78855 -3.54036 8.18297e-05
258 1 8.32957 -3.89821 0.0189527 -3.53987 0.000421169
259 1 7.96573 -2.12026 1.82645 -3.53934 0.00133468
260 1 10.4452 -5.32787 -3.59605 -3.54007 5.71872e-05
261 1 10.0872 -3.54618 -1.78855 -3.54016 9.51702e-05
262 1 9.72467 -1.76566 0.0189527 -3.54 0.000312655
263 1 9.35682 0.0109461 1.82645 -3.5396 0.000665502
264 1 11.8461 -3.19281 -3.59605 -3.54016 3.51321e-05
265 1 11.4842 -1.41169 -1.78855 -3.54009 8.65257e-05
266 1 11.1187 0.367492 0.0189535 -3.53984 0.000236804
267 1 10.7488 2.14375 1.82645 -3.53971 0.000402067
268 1 13.245 -1.05785 -3.59605 -3.54011 4.18345e-05
269 1 12.8808 0.72209 -1.78855 -3.54007 0.000120831
270 1 12.5138 2.49979 0.0189536 -3.54011 0.000309226
271 1 12.145 4.27381 1.82645 -3.54022 0.000558718
272 1 14.6449 1.07502 -3.59605 -3.54024 0.00011759
273 1 14.2813 2.85225 -1.78855 -3.54028 0.000240202
274 1 13.9178 4.62593 0.0189536 -3.54021 0.000312294
275 1 13.556 6.39535 1.82645 -3.53998 0.000230527
276 1 16.0514 3.20272 -3.59605 -3.54028 0.000143753
277 1 15.6919 4.97596 -1.78855 -3.54016 0.0001341
278 1 15.3336 6.74613 0.0189537 -3.53999 9.96953e-05
279 1 14.9762 8.51377 1.82645 -3.53993 7.45327e-05
280 1 17.4663 5.3254 -3.59605 -3.54015 5.79383e-05
281 1 17.1103 7.09618 -1.78855 -3.54009 5.27051e-05
282 1 16.7547 8.86495 0.0189537 -3.54009 5.91755e-05
283 1 16.3998 10.6318 1.82645 -3.54016 7.1124e-05
284 1 18.8865 7.44586 -3.59605 -3.54018 3.32566e-05
285 1 18.5327 9.21517 -1.78855 -3.54018 4.24124e-05
286 1 18.1798 10.9826 0.0189538 -3.54018 4.62362e-05
287 1 17.8283 12.7482 1.82645 -3.54011 3.84291e-05
288 1 20.3104 9.56506 -3.59605 -3.54021 2.28914e-05
289 1 19.9589 11.3331 -1.78855 -3.54016 2.40624e-05
290 1 19.6085 13.0998 0.0189547 -3.54008 3.19501e-05
291 1 19.2589 14.8657 1.82645 -3.54 5.85928e-05
292 1 21.7368 11.684 -3.59605 -3.54014 1.69974e-05
293 1 21.3866 13.452 -1.78855 -3.54008 3.36871e-05
294 1 21.0365 15.2196 0.0189548 -3.54004 5.54535e-05
295 1 20.6858 16.9875 1.82645 -3.54004 6.69199e-05
296 1 23.1628 13.8048 -3.59605 -3.54011 3.13244e-05
297 1 22.8118 15.574 -1.78855 -3.54009 4.22844e-05
298 1 22.46 17.3435 0.0189548 -3.5401 4.28928e-05
299 1 24.5854 15.9288 -3.59605 -3.54013 2.85393e-05
300 1 24.2327 17.6995 -1.78855 -3.54014 2.61032e-05
301 1 26.0044 18.0555 -3.59605 -3.54017 1.54917e-05
302 1 1.89351 -17.9113 0.0189517 -3.45152 0.608877
303 1 1.37134 -16.131 1.82645 -3.44273 0.671634
304 1 3.59927 -17.6482 -1.78855 -3.54081 0.0742294
305 1 3.2571 -15.8642 0.0189518 -3.51745 0.0954265
306 1 2.95887 -14.1733 1.82645 -3.5089 0.0608109
307 1 5.38069 -17.3587 -3.59605 -3.54431 0.014603
308 1 5.08131 -15.5921 -1.78855 -3.5357 0.00811974
309 1 4.78309 -13.841 0.0189526 -3.5303 0.0206616
310 1 4.4686 -12.0962 1.82645 -3.53494 0.0229586
311 1 6.87519 -15.2789 -3.59605 -3.53844 0.00476102
312 1 6.56458 -13.5086 -1.78855 -3.53651 0.00809867
313 1 6.23278 -11.7333 0.0189526 -3.53758 0.00442322
314 1 5.88218 -9.9516 1.82645 -3.54184 0.0020054
315 1 8.32804 -13.1634 -3.59605 -3.53915 0.00240075
316 1 7.98737 -11.3795 -1.78855 -3.53947 0.00067188
317 1 7.63515 -9.59487 0.0189527 -3.54054 0.000146942
318 1 7.28008 -7.81074 1.82645 -3.54158 0.00047665
319 1 9.74324 -11.0274 -3.59605 -3.5403 0.000141468
320 1 9.39251 -9.24317 -1.78855 -3.54027 4.90767e-05
321 1 9.0394 -7.46075 0.0189527 -3.54037 2.4476e-05
322 1 8.68583 -5.67936 1.82645 -3.54036 8.18297e-05
323 1 11.1524 -8.89167 -3.59605 -3.54023 3.31734e-05
324 1 10.7999 -7.10955 -1.78855 -3.54004 2.58069e-05
325 1 10.4452 -5.32787 0.0189535 -3.54007 5.71872e-05
326 1 10.0872 -3.54618 1.82645 -3.54016 9.51702e-05
327 1 12.5606 -6.75667 -3.59605 -3.54007 3.84271e-05
328 1 12.2048 -4.9747 -1.78855 -3.54007 3.4277e-05
329 1 11.8461 -3.19281 0.0189536 -3.54016 3.51321e-05
330 1 11.4842 -1.41169 1.82645 -3.54009 8.65257e-05
331 1 13.9654 -4.62065 -3.59605 -3.54013 2.2999e-05
332 1 13.6064 -2.83899 -1.78855 -3.54013 2.085e-05
333 1 13.245 -1.05785 0.0189536 -3.54011 4.18345e-05
334 1 12.8808 0.72209 1.82645 -3.54007 0.000120831
335 1 15.3683 -2.48501 -3.59605 -3.54017 2.21588e-05
336 1 15.0074 -0.704435 -1.78855 -3.54019 4.60837e-05
337 1 14.6449 1.07502 0.0189537 -3.54024 0.00011759
338 1 14.2813 2.85225 1.82645 -3.54028 0.000240202
339 1 16.7722 -0.351645 -3.59605 -3.54027 6.0754e-05
340 1 16.4117 1.4266 -1.78855 -3.5403 0.000107876
341 1 16.0514 3.20272 0.0189537 -3.54028 0.000143753
342 1 15.6919 4.97596 1.82645 -3.54016 0.0001341
343 1 18.1809 1.77741 -3.59605 -3.5403 7.63899e-05
344 1 17.8232 3.55246 -1.78855 -3.54025 7.24225e-05
345 1 17.4663 5.3254 0.0189538 -3.54015 5.79383e-05
346 1 17.1103 7.09618 1.82645 -3.54009 5.27051e-05
347 1 19.5961 3.90219 -3.59605 -3.54023 3.70955e-05
348 1 19.241 5.67483 -1.78855 -3.54019 3.03784e-05
349 1 18.8865 7.44586 0.0189547 -3.54018 3.32566e-05
350 1 18.5327 9.21517 1.82645 -3.54018 4.24124e-05
351 1 21.0158 6.02449 -3.59605 -3.54023 1.87149e-05
352 1 20.6627 7.79549 -1.78855 -3.54022 2.02679e-05
353 1 20.3104 9.56506 0.0189547 -3.54021 2.28914e-05
354 1 19.9589 11.3331 1.82645 -3.54016 2.40624e-05
355 1 22.4389 8.14541 -3.59605 -3.54023 9.92485e-06
356 1 22.0875 9.91522 -1.78855 -3.5402 1.05919e-05
357 1 21.7368 11.684 0.0189548 -3.54014 1.69974e-05
358 1 21.3866 13.452 1.82645 -3.54008 3.36871e-05
359 1 23.8638 10.2661 -3.59605 -3.54018 7.3869e-06
360 1 23.5133 12.0356 -1.78855 -3.54014 1.70249e-05
361 1 23.1628 13.8048 0.0189548 -3.54011 3.13244e-05
362 1 22.8118 15.574 1.82645 -3.54009 4.22844e-05
363 1 25.2884 12.388 -3.59605 -3.54015 1.67535e-05
364 1 24.9372 14.1583 -1.78855 -3.54014 2.49702e-05
365 1 24.5854 15.9288 0.0189549 -3.54013 2.85393e-05
366 1 24.2327 17.6995 1.82645 -3.54014 2.61032e-05
367 1 26.7105 14.5124 -3.59605 -3.54016 1.78907e-05
368 1 26.3579 16.2838 -1.78855 -3.54016 1.79916e-05
369 1 26.0044 18.0555 0.018955 -3.54017 1.54917e-05
370 1 28.1296 16.6389 -3.59604 -3.54018 1.08642e-05
371 1 27.7755 18.4113 -1.78854 -3.54019 8.9736e-06
372 1 3.59927 -17.6482 1.82645 -3.54081 0.0742294
373 1 5.38069 -17.3587 0.0189526 -3.54431 0.014603
374 1 5.08131 -15.5921 1.82645 -3.5357 0.00811974
375 1 7.1817 -17.0453 -1.78855 -3.54036 0.0026908
376 1 6.87519 -15.2789 0.0189527 -3.53844 0.00476102
377 1 6.56458 -13.5086 1.82645 -3.53651 0.00809867
378 1 8.976 -16.7099 -3.59605 -3.53913 0.00188777
379 1 8.65529 -14.9414 -1.78855 -3.53903 0.00343157
380 1 8.32804 -13.1634 0.0189527 -3.53915 0.00240075
381 1 7.98737 -11.3795 1.82645 -3.53947 0.00067188
382 1 10.4275 -14.5904 -3.59605 -3.53963 0.00152599
383 1 10.0887 -12.8114 -1.78855 -3.54012 0.000726864
384 1 9.74324 -11.0274 0.0189527 -3.5403 0.000141468
385 1 9.39251 -9.24317 1.82645 -3.54027 4.90767e-05
386 1 11.8513 -12.4558 -3.59605 -3.54036 0.000277785
387 1 11.5029 -10.6743 -1.78855 -3.54043 0.000106486
388 1 11.1524 -8.89167 0.0189535 -3.54023 3.31734e-05
389 1 10.7999 -7.10955 1.82645 -3.54004 2.58069e-05
390 1 13.2656 -10.3192 -3.59605 -3.54034 9.14533e-05
391 1 12.9139 -8.53834 -1.78855 -3.5402 5.35623e-05
392 1 12.5606 -6.75667 0.0189536 -3.54007 3.84271e-05
393 1 12.2048 -4.9747 1.82645 -3.54007 3.4277e-05
394 1 14.6768 -8.183 -3.59605 -3.5402 5.6422e-05
395 1 14.3221 -6.4022 -1.78855 -3.54015 3.75742e-05
396 1 13.9654 -4.62065 0.0189536 -3.54013 2.2999e-05
397 1 13.6064 -2.83899 1.82645 -3.54013 2.085e-05
398 1 16.0848 -6.04656 -3.59605 -3.5402 3.19256e-05
399 1 15.7274 -4.26594 -1.78855 -3.54018 2.15163e-05
400 1 15.3683 -2.48501 0.0189537 -3.54017 2.21588e-05
401 1 15.0074 -0.704435 1.82645 -3.54019 4.60837e-05
402 1 17.491 -3.91083 -3.59605 -3.54023 2.43294e-05
403 1 17.1321 -2.13107 -1.78855 -3.54023 3.26836e-05
404 1 16.7722 -0.351645 0.0189537 -3.54027 6.0754e-05
405 1 16.4117 1.4266 1.82645 -3.5403 0.000107876
406 1 18.8981 -1.77731 -3.59605 -3.54028 4.17868e-05
407 1 18.5394 0.000609406 -1.78855 -3.5403 6.16886e-05
408 1 18.1809 1.77741 0.0189538 -3.5403 7.63899e-05
409 1 17.8232 3.55246 1.82645 -3.54025 7.24225e-05
410 1 20.3087 0.352591 -3.59605 -3.5403 4.92293e-05
411 1 19.952 2.12804 -1.78855 -3.54028 4.68906e-05
412 1 19.5961 3.90219 0.0189547 -3.54023 3.70955e-05
413 1 19.241 5.67483 1.82645 -3.54019 3.03784e-05
414 1 21.7243 2.47885 -3.59605 -3.54026 2.85491e-05
415 1 21.3697 4.25222 -1.78855 -3.54024 2.1726e-05
416 1 21.0158 6.02449 0.0189548 -3.54023 1.87149e-05
417 1 20.6627 7.79549 1.82645 -3.54022 2.02679e-05
418 1 23.1439 4.60267 -3.59605 -3.54025 1.37494e-05
419 1 22.791 6.37452 -1.78855 -3.54024 1.10994e-05
420 1 22.4389 8.14541 0.0189548 -3.54023 9.92485e-06
421 1 22.0875 9.91522 1.82645 -3.5402 1.05919e-05
422 1 24.5662 6.7251 -3.59605 -3.54024 5.54806e-06
423 1 24.2147 8.49592 -1.78855 -3.54022 4.44462e-06
424 1 23.8638 10.2661 0.0189549 -3.54018 7.3869e-06
425 1 23.5133 12.0356 1.82645 -3.54014 1.70249e-05
426 1 25.9901 8.8472 -3.59605 -3.5402 3.55085e-06
427 1 25.6392 10.6177 -1.78855 -3.54018 8.35304e-06
428 1 25.2884 12.388 0.0189549 -3.54015 1.67535e-05
429 1 24.9372 14.1583 1.82645 -3.54014 2.49702e-05
430 1 27.4137 10.9702 -3.59604 -3.54018 9.33824e-06
431 1 27.0623 12.7412 -1.78854 -3.54017 1.45865e-05
432 1 26.7105 14.5124 0.018955 -3.54016 1.78907e-05
433 1 26.3579 16.2838 1.82645 -3.54016 1.79916e-05
434 1 28.8354 13.095 -3.59604 -3.54018 1.13826e-05
435 1 28.4828 14.8668 -1.78854 -3.54018 1.19022e-05
436 1 28.1296 16.6389 0.0189551 -3.54018 1.08642e-05
437 1 27.7755 18.4113 1.82646 -3.54019 8.9736e-06
438 1 30.2546 15.2216 -3.59604 -3.54019 7.47411e-06
439 1 29.9008 16.9942 -1.78854 -3.5402 6.3967e-06
440 1 31.6717 17.3495 -3.59604 -3.54021 3.79585e-06
441 1 7.1817 -17.0453 1.82645 -3.54036 0.0026908
442 1 8.976 -16.7099 0.0189527 -3.53913 0.00188777
443 1 8.65529 -14.9414 1.82645 -3.53903 0.00343157
444 1 11.0931 -18.1257 -3.59605 -3.53938 0.000543104
445 1 10.7609 -16.3615 -1.78855 -3.53921 0.00139736
446 1 10.4275 -14.5904 0.0189527 -3.53963 0.00152599
447 1 10.0887 -12.8114 1.82645 -3.54012 0.000726864
448 1 12.5389 -16.0061 -3.59605 -3.53962 0.000727929
449 1 12.1968 -14.2337 -1.78855 -3.54 0.000555218
450 1 11.8513 -12.4558 0.0189536 -3.54036 0.000277785
451 1 11.5029 -10.6743 1.82645 -3.54043 0.000106486
452 1 13.9655 -13.8749 -3.59605 -3.54017 0.000204367
453 1 13.6162 -12.0984 -1.78855 -3.54034 0.000133935
454 1 13.2656 -10.3192 0.0189536 -3.54034 9.14533e-05
455 1 12.9139 -8.53834 1.82645 -3.5402 5.35623e-05
456 1 15.3827 -11.74 -3.59605 -3.54027 7.32959e-05
457 1 15.0302 -9.96242 -1.78855 -3.54026 6.90136e-05
458 1 14.6768 -8.183 0.0189537 -3.5402 5.6422e-05
459 1 14.3221 -6.4022 1.82645 -3.54015 3.75742e-05
460 1 16.7959 -9.60449 -3.59605 -3.54022 4.58791e-05
461 1 16.4409 -7.82625 -1.78855 -3.54021 4.2965e-05
462 1 16.0848 -6.04656 0.0189537 -3.5402 3.19256e-05
463 1 15.7274 -4.26594 1.82645 -3.54018 2.15163e-05
464 1 18.2061 -7.46878 -3.59605 -3.54022 2.78332e-05
465 1 17.849 -5.69025 -1.78855 -3.54023 2.55734e-05
466 1 17.491 -3.91083 0.0189538 -3.54023 2.43294e-05
467 1 17.1321 -2.13107 1.82645 -3.54023 3.26836e-05
468 1 19.6148 -5.33373 -3.59605 -3.54025 2.13868e-05
469 1 19.2566 -3.55563 -1.78855 -3.54026 2.82831e-05
470 1 18.8981 -1.77731 0.0189547 -3.54028 4.17868e-05
471 1 18.5394 0.000609406 1.82645 -3.5403 6.16886e-05
472 1 21.0241 -3.2006 -3.59605 -3.54028 3.00372e-05
473 1 20.6662 -1.42379 -1.78855 -3.5403 4.16501e-05
474 1 20.3087 0.352591 0.0189547 -3.5403 4.92293e-05
475 1 19.952 2.12804 1.82645 -3.54028 4.68906e-05
476 1 22.4362 -1.07045 -3.59605 -3.54029 3.40807e-05
477 1 22.0798 0.704554 -1.78855 -3.54029 3.43082e-05
478 1 21.7243 2.47885 0.0189548 -3.54026 2.85491e-05
479 1 21.3697 4.25222 1.82645 -3.54024 2.1726e-05
480 1 23.8522 1.05665 -3.59605 -3.54027 2.26299e-05
481 1 23.4976 2.83 -1.78855 -3.54026 1.80851e-05
482 1 23.1439 4.60267 0.0189548 -3.54025 1.37494e-05
483 1 22.791 6.37452 1.82645 -3.54024 1.10994e-05
484 1 25.2715 3.18152 -3.59605 -3.54025 1.13173e-05
485 1 24.9185 4.95361 -1.78855 -3.54025 8.17406e-06
486 1 24.5662 6.7251 0.0189549 -3.54024 5.54806e-06
487 1 24.2147 8.49592 1.82645 -3.54022 4.44462e-06
488 1 26.6933 5.30508 -3.59605 -3.54024 4.25896e-06
489 1 26.3414 7.07633 -1.78855 -3.54023 2.76287e-06
490 1 25.9901 8.8472 0.018955 -3.5402 3.55085e-06
491 1 25.6392 10.6177 1.82645 -3.54018 8.35304e-06
492 1 28.1163 7.42828 -3.59604 -3.54021 2.31341e-06
493 1 27.7649 9.19929 -1.78854 -3.5402 4.6612e-06
494 1 27.4137 10.9702 0.018955 -3.54018 9.33824e-06
495 1 27.0623 12.7412 1.82646 -3.54017 1.45865e-05
496 1 29.5391 9.55214 -3.59604 -3.54019 5.73925e-06
497 1 29.1874 11.3235 -1.78854 -3.54019 9.06172e-06
498 1 28.8354 13.095 0.0189551 -3.54018 1.13826e-05
499 1 28.4828 14.8668 1.82646 -3.54018 1.19022e-05
500 1 30.9604 11.6773 -3.59604 -3.54019 7.69428e-06
501 1 30.6077 13.4493 -1.78854 -3.54019 8.05865e-06
502 1 30.2546 15.2216 0.0189551 -3.54019 7.47411e-06
503 1 29.9008 16.9942 1.82646 -3.5402 6.3967e-06
504 1 32.3796 13.804 -3.59604 -3.5402 5.16907e-06
505 1 32.026 15.5766 -1.78854 -3.5402 4.56075e-06
506 1 31.6717 17.3495 0.0189552 -3.54021 3.79585e-06
507 1 33.7972 15.9317 -3.59604 -3.54021 2.98259e-06
508 1 33.4425 17.7048 -1.78854 -3.54022 2.3252e-06
509 1 35.2133 18.06 -3.59604 -3.54023 1.30147e-06
510 1 11.0931 -18.1257 0.0189535 -3.53938 0.000543104
511 1 10.7609 -16.3615 1.82645 -3.53921 0.00139736
512 1 12.8786 -17.7729 -1.78855 -3.5395 0.000526328
513 1 12.5389 -16.0061 0.0189536 -3.53962 0.000727929
514 1 12.1968 -14.2337 1.82645 -3.54 0.000555218
515 1 14.6586 -17.4163 -3.59605 -3.53976 0.000340428
516 1 14.3131 -15.6476 -1.78855 -3.53993 0.000312532
517 1 13.9655 -13.8749 0.0189536 -3.54017 0.000204367
518 1 13.6162 -12.0984 1.82645 -3.54034 0.000133935
519 1 16.0854 -15.288 -3.59605 -3.5401 0.000128253
520 1 15.7346 -13.5153 -1.78855 -3.54022 8.64744e-05
521 1 15.3827 -11.74 0.0189537 -3.54027 7.32959e-05
522 1 15.0302 -9.96242 1.82645 -3.54026 6.90136e-05
523 1 17.5039 -13.1556 -3.59605 -3.54021 4.22772e-05
524 1 17.1502 -11.381 -1.78855 -3.54023 4.23116e-05
525 1 16.7959 -9.60449 0.0189537 -3.54022 4.58791e-05
526 1 16.4409 -7.82625 1.82645 -3.54021 4.2965e-05
527 1 18.9182 -11.0218 -3.59605 -3.54021 2.37445e-05
528 1 18.5625 -9.24603 -1.78855 -3.54021 2.69332e-05
529 1 18.2061 -7.46878 0.0189538 -3.54022 2.78332e-05
530 1 17.849 -5.69025 1.82645 -3.54023 2.55734e-05
531 1 20.3298 -8.88751 -3.59605 -3.54022 1.43401e-05
532 1 19.9726 -7.11113 -1.78855 -3.54023 1.74034e-05
533 1 19.6148 -5.33373 0.0189547 -3.54025 2.13868e-05
534 1 19.2566 -3.55563 1.82645 -3.54026 2.82831e-05
535 1 21.7402 -6.75369 -3.59605 -3.54024 1.22931e-05
536 1 21.3822 -4.97737 -1.78855 -3.54026 1.97215e-05
537 1 21.0241 -3.2006 0.0189548 -3.54028 3.00372e-05
538 1 20.6662 -1.42379 1.82645 -3.5403 4.16501e-05
539 1 23.151 -4.62139 -3.59605 -3.54027 1.86973e-05
540 1 22.7934 -2.84588 -1.78855 -3.54029 2.76499e-05
541 1 22.4362 -1.07045 0.0189548 -3.54029 3.40807e-05
542 1 22.0798 0.704554 1.82645 -3.54029 3.43082e-05
543 1 24.5641 -2.49147 -3.59605 -3.54028 2.23714e-05
544 1 24.2077 -0.717226 -1.78855 -3.54028 2.46423e-05
545 1 23.8522 1.05665 0.0189549 -3.54027 2.26299e-05
546 1 23.4976 2.83 1.82645 -3.54026 1.80851e-05
547 1 25.9802 -0.364041 -3.59605 -3.54026 1.65749e-05
548 1 25.6254 1.40894 -1.78855 -3.54026 1.44618e-05
549 1 25.2715 3.18152 0.0189549 -3.54025 1.13173e-05
550 1 24.9185 4.95361 1.82645 -3.54025 8.17406e-06
551 1 27.3993 1.76145 -3.59604 -3.54025 8.69476e-06
552 1 27.0459 3.53344 -1.78854 -3.54024 6.46474e-06
553 1 26.6933 5.30508 0.018955 -3.54024 4.25896e-06
554 1 26.3414 7.07633 1.82645 -3.54023 2.76287e-06
555 1 28.8204 3.88577 -3.59604 -3.54023 3.27647e-06
556 1 28.468 5.65713 -1.78854 -3.54023 2.22077e-06
557 1 28.1163 7.42828 0.0189551 -3.54021 2.31341e-06
558 1 27.7649 9.19929 1.82646 -3.5402 4.6612e-06
559 1 30.2426 6.00974 -3.59604 -3.54021 1.63543e-06
560 1 29.8907 7.78092 -1.78854 -3.5402 2.93183e-06
561 1 29.5391 9.55214 0.0189551 -3.54019 5.73925e-06
562 1 29.1874 11.3235 1.82646 -3.54019 9.06172e-06
563 1 31.6647 8.13417 -3.59604 -3.5402 3.67073e-06
564 1 31.3126 9.90563 -1.78854 -3.5402 6.06664e-06
565 1 30.9604 11.6773 0.0189552 -3.54019 7.69428e-06
566 1 30.6077 13.4493 1.82646 -3.54019 8.05865e-06
567 1 33.0857 10.2596 -3.59604 -3.5402 5.54348e-06
568 1 32.7328 12.0317 -1.78854 -3.5402 5.64732e-06
569 1 32.3796 13.804 0.0189552 -3.5402 5.16907e-06
570 1 32.026 15.5766 1.82646 -3.5402 4.56075e-06
571 1 34.5049 12.3863 -3.59604 -3.5402 3.40681e-06
572 1 34.1513 14.1589 -1.78854 -3.5402 3.14164e-06
573 1 33.7972 15.9317 0.0189552 -3.54021 2.98259e-06
574 1 33.4425 17.7048 1.82646 -3.54022 2.3252e-06
575 1 35.9227 14.5138 -3.59604 -3.54021 2.34389e-06
576 1 35.5683 16.2868 -1.78854 -3.54022 2.33624e-06
577 1 35.2133 18.06 0.0189552 -3.54023 1.30147e-06
578 1 37.3394 16.6419 -3.59604 -3.54024 1.85528e-06
579 1 36.9841 18.4152 -1.78854 -3.54023 3.12225e-07