ITEM: TIMESTEP
0
ITEM: NUMBER OF ATOMS
2504
ITEM: BOX BOUNDS xy xz yz mm pp pp
-5.5498871899999997e+01 5.5498871899999997e+01 0.0000000000000000e+00
-1.8432957300000002e+01 1.8432957300000002e+01 0.0000000000000000e+00
-3.6150000000000002e+00 3.6150000000000002e+00 0.0000000000000000e+00
ITEM: ATOMS id type x y z c_eng c_csym
1 1 0.630646 16.7758 -3.59901 -3.43868 3.51786
2 1 0.292467 -18.2711 -1.79151 -3.28024 9.01771
3 1 0.979113 13.0557 -3.59901 -3.50303 0.293358
4 1 0.844533 14.8143 -1.79151 -3.50396 0.582054
5 1 0.630646 16.7758 0.0159899 -3.43868 3.51786
6 1 0.292467 -18.2711 1.82349 -3.28024 9.01771
7 1 2.57107 15.1829 -3.59901 -3.54026 0.118356
8 1 2.28179 17.024 -1.79151 -3.51892 0.0857748
9 1 3.96783 17.3809 -3.59901 -3.54402 0.0306266
10 1 0.492035 7.39998 -3.59901 -3.52297 0.646481
11 1 0.150367 9.14479 -1.79151 -3.39433 1.86425
12 1 1.79521 9.59654 -3.59901 -3.50841 0.172034
13 1 1.31705 11.3649 -1.79151 -3.51032 0.272862
14 1 0.979113 13.0557 0.01599 -3.50303 0.293358
15 1 0.844533 14.8143 1.82349 -3.50396 0.582054
16 1 3.18058 11.6929 -3.59901 -3.52671 0.0309757
17 1 2.87836 13.4088 -1.79151 -3.51704 0.0617647
18 1 2.57107 15.1829 0.0159901 -3.54026 0.118356
19 1 2.28179 17.024 1.82349 -3.51892 0.0857748
20 1 4.6734 13.7828 -3.59901 -3.53361 0.0126172
21 1 4.32951 15.5586 -1.79151 -3.5378 0.0165231
22 1 3.96783 17.3809 0.0159901 -3.54402 0.0306266
23 1 6.08425 15.9324 -3.59901 -3.54112 0.00332347
24 1 5.72193 17.7205 -1.79151 -3.54502 0.0155152
25 1 7.50991 18.0573 -3.59901 -3.54169 0.0038859
26 1 1.11329 3.78399 -3.59901 -3.53807 0.0805282
27 1 0.816839 5.57015 -1.79151 -3.54438 0.0391155
28 1 0.492035 7.39998 0.0159899 -3.52297 0.646385
29 1 0.150367 9.14479 1.82349 -3.39523 1.86425
30 1 2.56685 5.94565 -3.59901 -3.54127 0.0205568
31 1 2.22452 7.74385 -1.79151 -3.52445 0.036215
32 1 1.79521 9.59654 0.0159901 -3.50841 0.172034
33 1 1.31705 11.3649 1.82349 -3.51033 0.272862
34 1 3.93664 8.13627 -3.59901 -3.54289 0.0132335
35 1 3.54044 9.93334 -1.79151 -3.5428 0.0465929
36 1 3.18058 11.6929 0.0159902 -3.52671 0.0309757
37 1 2.87836 13.4088 1.82349 -3.51704 0.0617647
38 1 5.33635 10.269 -3.59901 -3.54156 0.00668741
39 1 5.00478 12.0238 -1.79151 -3.53444 0.00583485
40 1 4.6734 13.7828 0.0159909 -3.53361 0.0126172
41 1 4.32951 15.5586 1.82349 -3.5378 0.0165231
42 1 6.79427 12.3779 -3.59901 -3.53787 0.00260016
43 1 6.4463 14.1493 -1.79151 -3.53803 0.00188855
44 1 6.08425 15.9324 0.0159909 -3.54112 0.00332347
45 1 5.72193 17.7205 1.82349 -3.54502 0.0155152
46 1 8.21578 14.5118 -3.59901 -3.54058 0.000478361
47 1 7.85744 16.2868 -1.79151 -3.5416 0.00291583
48 1 7.50991 18.0573 0.015991 -3.54169 0.0038859
49 1 9.64355 16.6343 -3.59901 -3.5408 0.0010399
50 1 9.30459 18.3975 -1.79151 -3.53982 0.00057998
51 1 0.510927 -1.83708 -3.59901 -3.52789 0.459196
52 1 0.179471 -0.111949 -1.79151 -3.42913 1.18371
53 1 1.91187 0.296126 -3.59901 -3.52754 0.0656937
54 1 1.49547 2.05023 -1.79151 -3.52737 0.0644155
55 1 1.11329 3.78399 0.01599 -3.53807 0.0804323
56 1 0.816839 5.57015 1.82349 -3.5436 0.0391155
57 1 3.28995 2.43274 -3.59901 -3.53423 0.00535763
58 1 2.92608 4.17899 -1.79151 -3.53517 0.00676812
59 1 2.56685 5.94565 0.0159901 -3.54127 0.0205568
60 1 2.22452 7.74385 1.82349 -3.52458 0.036215
61 1 4.70244 4.56646 -3.59901 -3.53714 0.00213539
62 1 4.3287 6.33733 -1.79151 -3.53781 0.00492589
63 1 3.93664 8.13627 0.0159901 -3.54289 0.0132335
64 1 3.54044 9.93334 1.82349 -3.5428 0.0465929
65 1 6.08398 6.7235 -3.59901 -3.54095 0.00236207
66 1 5.69923 8.50072 -1.79151 -3.54344 0.0098343
67 1 5.33635 10.269 0.0159909 -3.54156 0.00668741
68 1 5.00478 12.0238 1.82349 -3.53444 0.00583485
69 1 7.48687 8.85597 -3.59901 -3.54085 0.00222339
70 1 7.13619 10.6154 -1.79151 -3.53894 0.000805724
71 1 6.79427 12.3779 0.015991 -3.53787 0.00260016
72 1 6.4463 14.1493 1.82349 -3.53803 0.00188855
73 1 8.92479 10.972 -3.59901 -3.53905 0.000470376
74 1 8.57267 12.7385 -1.79151 -3.53948 0.0004778
75 1 8.21578 14.5118 0.015991 -3.54058 0.000478361
76 1 7.85744 16.2868 1.82349 -3.5416 0.00291583
77 1 10.3499 13.0983 -3.59901 -3.54038 0.000115614
78 1 9.9938 14.8672 -1.79151 -3.54098 0.000739557
79 1 9.64355 16.6343 0.015991 -3.5408 0.0010399
80 1 9.30459 18.3975 1.82349 -3.53982 0.00057998
81 1 11.7784 15.2194 -3.59901 -3.54055 0.000321345
82 1 11.4329 16.9824 -1.79151 -3.54006 0.000186692
83 1 13.2197 17.3339 -3.59901 -3.53979 0.000147193
84 1 1.16357 -5.39192 -3.59901 -3.53188 0.126521
85 1 0.840401 -3.64521 -1.79151 -3.54955 0.0561315
86 1 0.510927 -1.83708 0.0159899 -3.52789 0.459101
87 1 0.179471 -0.111949 1.82349 -3.42936 1.18371
88 1 2.6238 -3.24752 -3.59901 -3.54315 0.0165189
89 1 2.28362 -1.49482 -1.79151 -3.5342 0.0162389
90 1 1.91187 0.296126 0.0159901 -3.52754 0.0656457
91 1 1.49547 2.05023 1.82349 -3.52775 0.0644155
92 1 4.04335 -1.10086 -3.59901 -3.54239 0.00234073
93 1 3.66604 0.667237 -1.79151 -3.54079 0.00236956
94 1 3.28995 2.43274 0.0159902 -3.53423 0.00535763
95 1 2.92608 4.17899 1.82349 -3.5353 0.00676812
96 1 5.43792 1.04147 -3.59901 -3.54136 0.000371931
97 1 5.07066 2.80259 -1.79151 -3.53878 0.000547264
98 1 4.70244 4.56646 0.0159909 -3.53714 0.00213539
99 1 4.3287 6.33733 1.82349 -3.53781 0.00492589
100 1 6.84225 3.17674 -3.59901 -3.53945 0.000458536
101 1 6.46796 4.9465 -1.79151 -3.53903 0.000568141
102 1 6.08398 6.7235 0.0159909 -3.54095 0.00236207
103 1 5.69923 8.50072 1.82349 -3.54344 0.0098343
104 1 8.23268 5.3195 -3.59901 -3.54054 0.000714809
105 1 7.85498 7.09058 -1.79151 -3.5413 0.0024996
106 1 7.48687 8.85597 0.015991 -3.54085 0.00222339
107 1 7.13619 10.6154 1.82349 -3.53894 0.000805724
108 1 9.63655 7.44861 -3.59901 -3.54048 0.000857983
109 1 9.27723 9.21051 -1.79151 -3.53957 0.000211468
110 1 8.92479 10.972 0.015991 -3.53905 0.000470376
111 1 8.57267 12.7385 1.82349 -3.53948 0.0004778
112 1 11.0625 9.56679 -3.59901 -3.53954 7.35037e-05
113 1 10.7066 11.3311 -1.79151 -3.53969 7.72475e-05
114 1 10.3499 13.0983 0.0159911 -3.54038 0.000115614
115 1 9.9938 14.8672 1.82349 -3.54098 0.000739557
116 1 12.4867 11.6885 -3.59901 -3.54015 3.46798e-05
117 1 12.1307 13.4544 -1.79151 -3.54052 0.00019985
118 1 11.7784 15.2194 0.0159918 -3.54055 0.000321345
119 1 11.4329 16.9824 1.82349 -3.54006 0.000186692
120 1 13.9139 13.8079 -3.59901 -3.54032 0.000106112
121 1 13.5645 15.5712 -1.79151 -3.54012 6.87012e-05
122 1 13.2197 17.3339 0.0159919 -3.53979 0.000147193
123 1 15.3486 15.9242 -3.59901 -3.53995 5.73833e-05
124 1 15.0022 17.6884 -1.79151 -3.53982 0.00016497
125 1 16.781 18.0446 -3.59901 -3.53994 0.000121733
126 1 0.706016 -10.8987 -3.59901 -3.46195 2.87114
127 1 0.425957 -9.13163 -1.79151 -3.30214 8.21259
128 1 2.07484 -8.79739 -3.59901 -3.49452 0.334591
129 1 1.62087 -7.04025 -1.79151 -3.488 0.316892
130 1 1.16357 -5.39192 0.01599 -3.53188 0.126425
131 1 0.840401 -3.64521 1.82349 -3.54884 0.0561315
132 1 3.40082 -6.69426 -3.59901 -3.5282 0.0599009
133 1 3.01129 -4.96304 -1.79151 -3.52754 0.0265356
134 1 2.6238 -3.24752 0.0159901 -3.54315 0.0165189
135 1 2.28362 -1.49482 1.82349 -3.53439 0.0162389
136 1 4.79687 -4.59872 -3.59901 -3.53484 0.0128989
137 1 4.42237 -2.85315 -1.79151 -3.53612 0.00510083
138 1 4.04335 -1.10086 0.0159908 -3.54239 0.00234073
139 1 3.66604 0.667237 1.82349 -3.54084 0.00236956
140 1 6.19335 -2.48035 -3.59901 -3.53802 0.00334197
141 1 5.81444 -0.718832 -1.79151 -3.54038 0.000884843
142 1 5.43792 1.04147 0.0159909 -3.54136 0.000371931
143 1 5.07066 2.80259 1.82349 -3.53878 0.000547264
144 1 7.58498 -0.351849 -3.59901 -3.53962 0.00106906
145 1 7.21324 1.41217 -1.79151 -3.53967 0.000381396
146 1 6.84225 3.17674 0.015991 -3.53945 0.000458536
147 1 6.46796 4.9465 1.82349 -3.53903 0.000568141
148 1 8.98284 1.77792 -3.59901 -3.53937 0.000471497
149 1 8.60989 3.54781 -1.79151 -3.53969 0.000274124
150 1 8.23268 5.3195 0.015991 -3.54054 0.000714809
151 1 7.85498 7.09058 1.82349 -3.5413 0.0024996
152 1 10.3773 3.91175 -3.59901 -3.54013 0.000437933
153 1 10.0047 5.68229 -1.79151 -3.54063 0.000888583
154 1 9.63655 7.44861 0.015991 -3.54048 0.000857983
155 1 9.27723 9.21051 1.82349 -3.53957 0.000211468
156 1 11.7816 6.03817 -3.59901 -3.54026 0.000457789
157 1 11.4199 7.80355 -1.79151 -3.53989 0.000179514
158 1 11.0625 9.56679 0.0159918 -3.53954 7.35037e-05
159 1 10.7066 11.3311 1.82349 -3.53969 7.72475e-05
160 1 13.201 8.15745 -3.59901 -3.53982 7.4355e-05
161 1 12.8437 9.92289 -1.79151 -3.53983 3.33536e-05
162 1 12.4867 11.6885 0.0159919 -3.54015 3.46798e-05
163 1 12.1307 13.4544 1.82349 -3.54052 0.00019985
164 1 14.6231 10.2773 -3.59901 -3.54008 4.4517e-05
165 1 14.2674 12.0433 -1.79151 -3.54027 7.76875e-05
166 1 13.9139 13.8079 0.0159919 -3.54032 0.000106112
167 1 13.5645 15.5712 1.82349 -3.54012 6.87012e-05
168 1 16.0485 12.396 -3.59901 -3.54022 5.45867e-05
169 1 15.6972 14.1606 -1.79151 -3.54012 3.57248e-05
170 1 15.3486 15.9242 0.015992 -3.53995 5.73833e-05
171 1 15.0022 17.6884 1.82349 -3.53982 0.00016497
172 1 17.4787 14.5134 -3.59901 -3.54003 3.4145e-05
173 1 17.1296 16.2786 -1.79151 -3.53995 7.61465e-05
174 1 16.781 18.0446 0.0159921 -3.53994 0.000121733
175 1 18.9076 16.6338 -3.59901 -3.54001 6.73246e-05
176 1 18.557 18.4016 -1.79151 -3.54004 7.28597e-05
177 1 1.00682 -14.5395 -3.59901 -3.48628 0.457048
178 1 0.89538 -12.7972 -1.79151 -3.5234 0.465141
179 1 0.706016 -10.8987 0.0159899 -3.46195 2.87114
180 1 0.425957 -9.13163 1.82349 -3.30089 8.21259
181 1 2.66058 -12.4629 -3.59901 -3.5428 0.125621
182 1 2.406 -10.6631 -1.79151 -3.53098 0.0859973
183 1 2.07484 -8.79739 0.0159901 -3.49453 0.334544
184 1 1.62087 -7.04025 1.82349 -3.48862 0.316892
185 1 4.11713 -10.3093 -3.59901 -3.54464 0.0205247
186 1 3.76998 -8.49354 -1.79151 -3.54058 0.0131633
187 1 3.40082 -6.69426 0.0159902 -3.5282 0.0599009
188 1 3.01129 -4.96304 1.82349 -3.52766 0.0265356
189 1 5.50869 -8.15842 -3.59901 -3.54383 0.00274427
190 1 5.15864 -6.36989 -1.79151 -3.53955 0.00432353
191 1 4.79687 -4.59872 0.0159909 -3.53484 0.0128989
192 1 4.42237 -2.85315 1.82349 -3.53612 0.00510083
193 1 6.91622 -6.03001 -3.59901 -3.54069 0.00027543
194 1 6.56132 -4.25095 -1.79151 -3.53859 0.00237588
195 1 6.19335 -2.48035 0.0159909 -3.53802 0.00334197
196 1 5.81444 -0.718832 1.82349 -3.54038 0.000884843
197 1 8.31944 -3.90037 -3.59901 -3.54004 0.000310603
198 1 7.95553 -2.12243 -1.79151 -3.53966 0.00103653
199 1 7.58498 -0.351849 0.015991 -3.53962 0.00106906
200 1 7.21324 1.41217 1.82349 -3.53967 0.000381396
201 1 9.71696 -1.76852 -3.59901 -3.54014 0.000235243
202 1 9.35178 0.00681334 -1.79151 -3.53962 0.00049589
203 1 8.98284 1.77792 0.015991 -3.53937 0.000471497
204 1 8.60989 3.54781 1.82349 -3.53969 0.000274124
205 1 11.1158 0.362831 -3.59901 -3.53984 0.000172123
206 1 10.7486 2.13842 -1.79151 -3.53974 0.000281088
207 1 10.3773 3.91175 0.0159918 -3.54013 0.000437933
208 1 10.0047 5.68229 1.82349 -3.54063 0.000888583
209 1 12.5143 2.49453 -3.59901 -3.54015 0.00022426
210 1 12.1474 4.26851 -1.79151 -3.54029 0.000441291
211 1 11.7816 6.03817 0.0159918 -3.54026 0.000457789
212 1 11.4199 7.80355 1.82349 -3.53989 0.000179514
213 1 13.9201 4.62093 -3.59901 -3.54025 0.000243038
214 1 13.5595 6.39072 -1.79151 -3.54003 0.000168997
215 1 13.201 8.15745 0.0159919 -3.53982 7.4355e-05
216 1 12.8437 9.92289 1.82349 -3.53983 3.33536e-05
217 1 15.3365 6.742 -3.59901 -3.54002 6.87305e-05
218 1 14.9796 8.51033 -1.79151 -3.53997 4.99875e-05
219 1 14.6231 10.2773 0.015992 -3.54008 4.4517e-05
220 1 14.2674 12.0433 1.82349 -3.54027 7.76875e-05
221 1 16.7571 8.8621 -3.59901 -3.54012 4.07964e-05
222 1 16.4022 10.6299 -1.79151 -3.54019 5.2184e-05
223 1 16.0485 12.396 0.0159921 -3.54022 5.45867e-05
224 1 15.6972 14.1606 1.82349 -3.54012 3.57248e-05
225 1 18.1809 10.9813 -3.59901 -3.5402 3.41451e-05
226 1 17.829 12.7479 -1.79151 -3.54014 2.81707e-05
227 1 17.4787 14.5134 0.0159922 -3.54003 3.4145e-05
228 1 17.1296 16.2786 1.82349 -3.53995 7.61465e-05
229 1 19.608 13.0999 -3.59901 -3.5401 2.31728e-05
230 1 19.2577 14.8668 -1.79151 -3.54003 4.31099e-05
231 1 18.9076 16.6338 0.0159923 -3.54001 6.73246e-05
232 1 18.557 18.4016 1.82349 -3.54004 7.28597e-05
233 1 21.0344 15.2208 -3.59901 -3.54007 4.00072e-05
234 1 20.6831 16.9894 -1.79151 -3.54008 4.73454e-05
235 1 22.457 17.3452 -3.59901 -3.54013 3.01234e-05
236 1 1.89459 -17.9233 -3.59901 -3.45294 0.621814
237 1 1.37568 -16.1479 -1.79151 -3.4409 0.680235
238 1 1.00682 -14.5395 0.01599 -3.48628 0.457048
239 1 0.89538 -12.7972 1.82349 -3.5234 0.465141
240 1 3.26006 -15.8744 -3.59901 -3.51754 0.0907359
241 1 2.95922 -14.1831 -1.79151 -3.50895 0.0653145
242 1 2.66058 -12.4629 0.0159901 -3.5428 0.125621
243 1 2.406 -10.6631 1.82349 -3.53104 0.0859973
244 1 4.77744 -13.8428 -3.59901 -3.53064 0.020087
245 1 4.45466 -12.0951 -1.79151 -3.53563 0.0195637
246 1 4.11713 -10.3093 0.0159908 -3.54464 0.0205247
247 1 3.76998 -8.49354 1.82349 -3.54063 0.0131633
248 1 6.21735 -11.7293 -3.59901 -3.53816 0.00287858
249 1 5.86274 -9.94844 -1.79151 -3.54246 0.0017751
250 1 5.50869 -8.15842 0.0159909 -3.54383 0.00274427
251 1 5.15864 -6.36989 1.82349 -3.53955 0.00432353
252 1 7.62057 -9.59278 -3.59901 -3.54069 0.000139409
253 1 7.26722 -7.812 -1.79151 -3.54133 0.000330181
254 1 6.91622 -6.03001 0.015991 -3.54069 0.00027543
255 1 6.56132 -4.25095 1.82349 -3.53859 0.00237588
256 1 9.02954 -7.46128 -3.59901 -3.5402 2.09787e-05
257 1 8.67621 -5.6812 -1.79151 -3.54029 0.000111082
258 1 8.31944 -3.90037 0.015991 -3.54004 0.000310603
259 1 7.95553 -2.12243 1.82349 -3.53966 0.00103653
260 1 10.4367 -5.32858 -3.59901 -3.54015 4.27991e-05
261 1 10.0786 -3.54786 -1.79151 -3.54033 5.67782e-05
262 1 9.71696 -1.76852 0.015991 -3.54014 0.000235243
263 1 9.35178 0.00681334 1.82349 -3.53962 0.00049589
264 1 11.8396 -3.19454 -3.59901 -3.54025 2.05382e-05
265 1 11.4791 -1.41499 -1.79151 -3.54013 5.82761e-05
266 1 11.1158 0.362831 0.0159918 -3.53984 0.000172123
267 1 10.7486 2.13842 1.82349 -3.53974 0.000281088
268 1 13.242 -1.06121 -3.59901 -3.54012 2.56266e-05
269 1 12.8795 0.717508 -1.79151 -3.54008 7.91516e-05
270 1 12.5143 2.49453 0.0159919 -3.54015 0.00022426
271 1 12.1474 4.26851 1.82349 -3.54029 0.000441291
272 1 14.6447 1.07082 -3.59901 -3.54025 8.26519e-05
273 1 14.2824 2.84741 -1.79151 -3.54031 0.000184374
274 1 13.9201 4.62093 0.0159919 -3.54025 0.000243038
275 1 13.5595 6.39072 1.82349 -3.54003 0.000168997
276 1 16.0527 3.19848 -3.59901 -3.5403 0.00010989
277 1 15.694 4.97156 -1.79151 -3.54018 9.8779e-05
278 1 15.3365 6.742 0.015992 -3.54002 6.87305e-05
279 1 14.9796 8.51033 1.82349 -3.53997 4.99875e-05
280 1 17.4683 5.32173 -3.59901 -3.54016 4.02923e-05
281 1 17.1125 7.09274 -1.79151 -3.5401 3.55806e-05
282 1 16.7571 8.8621 0.0159921 -3.54012 4.07964e-05
283 1 16.4022 10.6299 1.82349 -3.54019 5.2184e-05
284 1 18.8881 7.4432 -3.59901 -3.54018 2.29302e-05
285 1 18.5341 9.21301 -1.79151 -3.5402 3.05002e-05
286 1 18.1809 10.9813 0.0159922 -3.5402 3.41451e-05
287 1 17.829 12.7479 1.82349 -3.54014 2.81707e-05
288 1 20.311 9.56362 -3.59901 -3.54021 1.66772e-05
289 1 19.9591 11.3323 -1.79151 -3.54017 1.74161e-05
290 1 19.608 13.0999 0.015993 -3.5401 2.31728e-05
291 1 19.2577 14.8668 1.82349 -3.54003 4.31099e-05
292 1 21.7361 11.6838 -3.59901 -3.54016 1.22303e-05
293 1 21.3852 13.4524 -1.79151 -3.5401 2.44518e-05
294 1 21.0344 15.2208 0.0159932 -3.54007 4.00072e-05
295 1 20.6831 16.9894 1.82349 -3.54008 4.73454e-05
296 1 23.1608 13.8055 -3.59901 -3.54012 2.2527e-05
297 1 22.8092 15.5752 -1.79151 -3.54011 3.00638e-05
298 1 22.457 17.3452 0.0159932 -3.54013 3.01234e-05
299 1 24.5827 15.93 -3.59901 -3.54015 2.01738e-05
300 1 24.2297 17.701 -1.79151 -3.54016 1.84027e-05
301 1 26.0015 18.0567 -3.59901 -3.54018 1.09951e-05
302 1 1.89459 -17.9233 0.0159901 -3.45294 0.621814
303 1 1.37568 -16.1479 1.82349 -3.4409 0.680235
304 1 3.60298 -17.6559 -1.79151 -3.54142 0.0705003
305 1 3.26006 -15.8744 0.0159902 -3.51754 0.0907359
306 1 2.95922 -14.1831 1.82349 -3.50895 0.0653145
307 1 5.38475 -17.3616 -3.59901 -3.54421 0.0128644
308 1 5.08189 -15.5957 -1.79151 -3.53557 0.00808655
309 1 4.77744 -13.8428 0.0159909 -3.53064 0.020087
310 1 4.45466 -12.0951 1.82349 -3.53563 0.0195637
311 1 6.87259 -15.2769 -3.59901 -3.53849 0.00447088
312 1 6.55552 -13.5055 -1.79151 -3.53684 0.00674604
313 1 6.21735 -11.7293 0.0159909 -3.53816 0.00287858
314 1 5.86274 -9.94844 1.82349 -3.54246 0.0017751
315 1 8.31814 -13.1579 -3.59901 -3.53948 0.00161598
316 1 7.97378 -11.375 -1.79151 -3.53984 0.000334877
317 1 7.62057 -9.59278 0.015991 -3.54069 0.000139409
318 1 7.26722 -7.812 1.82349 -3.54133 0.000330181
319 1 9.73263 -11.0232 -3.59901 -3.54042 7.29242e-05
320 1 9.3819 -9.24142 -1.79151 -3.54019 2.09027e-05
321 1 9.02954 -7.46128 0.015991 -3.5402 2.09787e-05
322 1 8.67621 -5.6812 1.82349 -3.54029 0.000111082
323 1 11.1443 -8.88966 -3.59901 -3.54015 2.61768e-05
324 1 10.7917 -7.10913 -1.79151 -3.54 3.3937e-05
325 1 10.4367 -5.32858 0.0159918 -3.54015 4.27991e-05
326 1 10.0786 -3.54786 1.82349 -3.54033 5.67782e-05
327 1 12.5538 -6.75568 -3.59901 -3.5401 2.98892e-05
328 1 12.1979 -4.975 -1.79151 -3.54016 1.97241e-05
329 1 11.8396 -3.19454 0.0159918 -3.54025 2.05382e-05
330 1 11.4791 -1.41499 1.82349 -3.54013 5.82761e-05
331 1 13.9603 -4.62094 -3.59901 -3.54019 1.42799e-05
332 1 13.6021 -2.84083 -1.79151 -3.54017 1.27232e-05
333 1 13.242 -1.06121 0.0159919 -3.54012 2.56266e-05
334 1 12.8795 0.717508 1.82349 -3.54008 7.91516e-05
335 1 15.3657 -2.48686 -3.59901 -3.54018 1.37211e-05
336 1 15.006 -0.707598 -1.79151 -3.54019 2.8653e-05
337 1 14.6447 1.07082 0.015992 -3.54025 8.26519e-05
338 1 14.2824 2.84741 1.82349 -3.54031 0.000184374
339 1 16.7718 -0.354481 -3.59901 -3.54027 4.2165e-05
340 1 16.4122 1.4229 -1.79151 -3.54031 8.05673e-05
341 1 16.0527 3.19848 0.0159921 -3.5403 0.00010989
342 1 15.694 4.97156 1.82349 -3.54018 9.8779e-05
343 1 18.1819 1.77429 -3.59901 -3.5403 5.71641e-05
344 1 17.8247 3.54892 -1.79151 -3.54025 5.3217e-05
345 1 17.4683 5.32173 0.0159922 -3.54016 4.02923e-05
346 1 17.1125 7.09274 1.82349 -3.5401 3.55806e-05
347 1 19.5975 3.89936 -3.59901 -3.54023 2.6118e-05
348 1 19.2425 5.67195 -1.79151 -3.54019 2.06369e-05
349 1 18.8881 7.4432 0.015993 -3.54018 2.29302e-05
350 1 18.5341 9.21301 1.82349 -3.5402 3.05002e-05
351 1 21.017 6.02236 -3.59901 -3.54023 1.29334e-05
352 1 20.6637 7.7936 -1.79151 -3.54023 1.44442e-05
353 1 20.311 9.56362 0.0159931 -3.54021 1.66772e-05
354 1 19.9591 11.3323 1.82349 -3.54017 1.74161e-05
355 1 22.4392 8.14423 -3.59901 -3.54023 7.1814e-06
356 1 22.0873 9.91445 -1.79151 -3.5402 7.639e-06
357 1 21.7361 11.6838 0.0159932 -3.54016 1.22303e-05
358 1 21.3852 13.4524 1.82349 -3.5401 2.44518e-05
359 1 23.863 10.2658 -3.59901 -3.54019 5.29406e-06
360 1 23.5119 12.0358 -1.79151 -3.54015 1.22771e-05
361 1 23.1608 13.8055 0.0159933 -3.54012 2.2527e-05
362 1 22.8092 15.5752 1.82349 -3.54011 3.00638e-05
363 1 25.2866 12.3886 -3.59901 -3.54016 1.20234e-05
364 1 24.9349 14.1592 -1.79151 -3.54015 1.77964e-05
365 1 24.5827 15.93 0.0159934 -3.54015 2.01738e-05
366 1 24.2297 17.701 1.82349 -3.54016 1.84027e-05
367 1 26.708 14.5133 -3.59901 -3.54017 1.26935e-05
368 1 26.3551 16.2849 -1.79151 -3.54017 1.27235e-05
369 1 26.0015 18.0567 0.0159935 -3.54018 1.09951e-05
370 1 28.1269 16.6399 -3.59901 -3.54019 7.69947e-06
371 1 27.7728 18.4123 -1.79151 -3.54019 6.40103e-06
372 1 3.60298 -17.6559 1.82349 -3.54142 0.0705003
373 1 5.38475 -17.3616 0.0159909 -3.54421 0.0128644
374 1 5.08189 -15.5957 1.82349 -3.53557 0.00808655
375 1 7.18421 -17.0437 -1.79151 -3.54021 0.00229903
376 1 6.87259 -15.2769 0.015991 -3.53849 0.00447088
377 1 6.55552 -13.5055 1.82349 -3.53684 0.00674604
378 1 8.97605 -16.7053 -3.59901 -3.53916 0.00163436
379 1 8.65044 -14.9361 -1.79151 -3.53921 0.00279633
380 1 8.31814 -13.1579 0.015991 -3.53948 0.00161598
381 1 7.97378 -11.375 1.82349 -3.53984 0.000334877
382 1 10.4217 -14.5839 -3.59901 -3.53981 0.00108329
383 1 10.0798 -12.8054 -1.79151 -3.54033 0.000433586
384 1 9.73263 -11.0232 0.015991 -3.54042 7.29242e-05
385 1 9.3819 -9.24142 1.82349 -3.54019 2.09027e-05
386 1 11.844 -12.4502 -3.59901 -3.54043 0.000175402
387 1 11.4949 -10.6704 -1.79151 -3.54041 7.09815e-05
388 1 11.1443 -8.88966 0.0159918 -3.54015 2.61768e-05
389 1 10.7917 -7.10913 1.82349 -3.54 3.3937e-05
390 1 13.2594 -10.3156 -3.59901 -3.5403 6.89993e-05
391 1 12.9074 -8.53605 -1.79151 -3.54018 4.49954e-05
392 1 12.5538 -6.75568 0.0159919 -3.5401 2.98892e-05
393 1 12.1979 -4.975 1.82349 -3.54016 1.97241e-05
394 1 14.6716 -8.18071 -3.59901 -3.54022 4.23375e-05
395 1 14.3168 -6.40111 -1.79151 -3.54019 2.54178e-05
396 1 13.9603 -4.62094 0.0159919 -3.54019 1.42799e-05
397 1 13.6021 -2.84083 1.82349 -3.54017 1.27232e-05
398 1 16.081 -6.04568 -3.59901 -3.54023 2.19444e-05
399 1 15.724 -4.26637 -1.79151 -3.5402 1.44502e-05
400 1 15.3657 -2.48686 0.015992 -3.54018 1.37211e-05
401 1 15.006 -0.707598 1.82349 -3.54019 2.8653e-05
402 1 17.4891 -3.91141 -3.59901 -3.54023 1.64866e-05
403 1 17.1309 -2.13282 -1.79151 -3.54023 2.13831e-05
404 1 16.7718 -0.354481 0.0159921 -3.54027 4.2165e-05
405 1 16.4122 1.4229 1.82349 -3.54031 8.05673e-05
406 1 18.8978 -1.77893 -3.59901 -3.54028 2.90996e-05
407 1 18.5398 -0.00184745 -1.79151 -3.5403 4.49746e-05
408 1 18.1819 1.77429 0.0159922 -3.5403 5.71641e-05
409 1 17.8247 3.54892 1.82349 -3.54025 5.3217e-05
410 1 20.3096 0.350525 -3.59901 -3.5403 3.60706e-05
411 1 19.9532 2.1255 -1.79151 -3.54027 3.41993e-05
412 1 19.5975 3.89936 0.015993 -3.54023 2.6118e-05
413 1 19.2425 5.67195 1.82349 -3.54019 2.06369e-05
414 1 21.7255 2.47687 -3.59901 -3.54026 2.02822e-05
415 1 21.3709 4.25007 -1.79151 -3.54024 1.50409e-05
416 1 21.017 6.02236 0.0159932 -3.54023 1.29334e-05
417 1 20.6637 7.7936 1.82349 -3.54023 1.44442e-05
418 1 23.1448 4.60115 -3.59901 -3.54024 9.60103e-06
419 1 22.7917 6.3731 -1.79151 -3.54024 7.86865e-06
420 1 22.4392 8.14423 0.0159932 -3.54023 7.1814e-06
421 1 22.0873 9.91445 1.82349 -3.5402 7.639e-06
422 1 24.5665 6.72428 -3.59901 -3.54024 3.98549e-06
423 1 24.2145 8.49535 -1.79151 -3.54022 3.19897e-06
424 1 23.863 10.2658 0.0159933 -3.54019 5.29406e-06
425 1 23.5119 12.0358 1.82349 -3.54015 1.22771e-05
426 1 25.9894 8.84712 -3.59901 -3.54021 2.53514e-06
427 1 25.638 10.6179 -1.79151 -3.54018 5.99566e-06
428 1 25.2866 12.3886 0.0159935 -3.54016 1.20234e-05
429 1 24.9349 14.1592 1.82349 -3.54015 1.77964e-05
430 1 27.4121 10.9708 -3.59901 -3.54019 6.6913e-06
431 1 27.0603 12.742 -1.79151 -3.54018 1.04143e-05
432 1 26.708 14.5133 0.0159936 -3.54017 1.26935e-05
433 1 26.3551 16.2849 1.82349 -3.54017 1.27235e-05
434 1 28.8332 13.0959 -3.59901 -3.54019 8.10159e-06
435 1 28.4803 14.8678 -1.79151 -3.54019 8.42844e-06
436 1 28.1269 16.6399 0.0159937 -3.54019 7.69947e-06
437 1 27.7728 18.4123 1.82349 -3.54019 6.40103e-06
438 1 30.2522 15.2225 -3.59901 -3.5402 5.27728e-06
439 1 29.8983 16.9951 -1.79151 -3.5402 4.54579e-06
440 1 31.6694 17.3502 -3.59901 -3.54021 2.72512e-06
441 1 7.18421 -17.0437 1.82349 -3.54021 0.00229903
442 1 8.97605 -16.7053 0.015991 -3.53916 0.00163436
443 1 8.65044 -14.9361 1.82349 -3.53921 0.00279633
444 1 11.0943 -18.1209 -3.59901 -3.53945 0.000449481
445 1 10.7588 -16.3555 -1.79151 -3.53934 0.00110496
446 1 10.4217 -14.5839 0.0159911 -3.53981 0.00108329
447 1 10.0798 -12.8054 1.82349 -3.54033 0.000433586
448 1 12.5355 -16 -3.59901 -3.53975 0.000520475
449 1 12.1911 -14.2273 -1.79151 -3.54012 0.000357895
450 1 11.844 -12.4502 0.0159918 -3.54043 0.000175402
451 1 11.4949 -10.6704 1.82349 -3.54041 7.09815e-05
452 1 13.9604 -13.8693 -3.59901 -3.54022 0.000130817
453 1 13.6103 -12.0935 -1.79151 -3.54034 9.22485e-05
454 1 13.2594 -10.3156 0.0159919 -3.5403 6.89993e-05
455 1 12.9074 -8.53605 1.82349 -3.54018 4.49954e-05
456 1 15.3779 -11.7358 -3.59901 -3.54026 5.39031e-05
457 1 15.0252 -9.9591 -1.79151 -3.54024 5.2884e-05
458 1 14.6716 -8.18071 0.015992 -3.54022 4.23375e-05
459 1 14.3168 -6.40111 1.82349 -3.54019 2.54178e-05
460 1 16.7919 -9.60165 -3.59901 -3.54023 3.38315e-05
461 1 16.4369 -7.82426 -1.79151 -3.54023 3.0436e-05
462 1 16.081 -6.04568 0.0159921 -3.54023 2.19444e-05
463 1 15.724 -4.26637 1.82349 -3.5402 1.44502e-05
464 1 18.2032 -7.46726 -3.59901 -3.54023 1.95347e-05
465 1 17.8465 -5.6897 -1.79151 -3.54024 1.79295e-05
466 1 17.4891 -3.91141 0.0159922 -3.54023 1.64866e-05
467 1 17.1309 -2.13282 1.82349 -3.54023 2.13831e-05
468 1 19.6133 -5.33352 -3.59901 -3.54024 1.49378e-05
469 1 19.2558 -3.55633 -1.79151 -3.54026 1.93618e-05
470 1 18.8978 -1.77893 0.015993 -3.54028 2.90996e-05
471 1 18.5398 -0.00184745 1.82349 -3.5403 4.49746e-05
472 1 21.024 -3.20138 -3.59901 -3.54028 2.10587e-05
473 1 20.6666 -1.42524 -1.79151 -3.54029 2.99133e-05
474 1 20.3096 0.350525 0.0159931 -3.5403 3.60706e-05
475 1 19.9532 2.1255 1.82349 -3.54027 3.41993e-05
476 1 22.437 -1.07173 -3.59901 -3.54029 2.46326e-05
477 1 22.0809 0.702871 -1.79151 -3.54028 2.48058e-05
478 1 21.7255 2.47687 0.0159932 -3.54026 2.02822e-05
479 1 21.3709 4.25007 1.82349 -3.54024 1.50409e-05
480 1 23.8532 1.05533 -3.59901 -3.54026 1.61333e-05
481 1 23.4987 2.82852 -1.79151 -3.54025 1.27086e-05
482 1 23.1448 4.60115 0.0159933 -3.54024 9.60103e-06
483 1 22.7917 6.3731 1.82349 -3.54024 7.86865e-06
484 1 25.2723 3.18051 -3.59901 -3.54025 7.96855e-06
485 1 24.9191 4.95264 -1.79151 -3.54024 5.78808e-06
486 1 24.5665 6.72428 0.0159934 -3.54024 3.98549e-06
487 1 24.2145 8.49535 1.82349 -3.54022 3.19897e-06
488 1 26.6935 5.30459 -3.59901 -3.54024 3.04223e-06
489 1 26.3412 7.07602 -1.79151 -3.54023 1.98154e-06
490 1 25.9894 8.84712 0.0159935 -3.54021 2.53514e-06
491 1 25.638 10.6179 1.82349 -3.54018 5.99566e-06
492 1 28.1157 7.42836 -3.59901 -3.54021 1.64593e-06
493 1 27.7638 9.19958 -1.79151 -3.5402 3.32889e-06
494 1 27.4121 10.9708 0.0159936 -3.54019 6.6913e-06
495 1 27.0603 12.742 1.82349 -3.54018 1.04143e-05
496 1 29.5377 9.55268 -3.59901 -3.5402 4.10759e-06
497 1 29.1856 11.3242 -1.79151 -3.54019 6.48673e-06
498 1 28.8332 13.0959 0.0159937 -3.54019 8.10159e-06
499 1 28.4803 14.8678 1.82349 -3.54019 8.42844e-06
500 1 30.9585 11.6781 -3.59901 -3.5402 5.50334e-06
501 1 30.6055 13.4502 -1.79151 -3.5402 5.70791e-06
502 1 30.2522 15.2225 0.0159938 -3.5402 5.27728e-06
503 1 29.8983 16.9951 1.82349 -3.5402 4.54579e-06
504 1 32.3775 13.8048 -3.59901 -3.5402 3.61617e-06
505 1 32.0237 15.5774 -1.79151 -3.5402 3.21643e-06
506 1 31.6694 17.3502 0.0159939 -3.54021 2.72512e-06
507 1 33.7951 15.9324 -3.59901 -3.54021 2.14499e-06
508 1 33.4405 17.7054 -1.79151 -3.54022 1.71288e-06
509 1 35.2115 18.0605 -3.59901 -3.54023 9.84648e-07
510 1 11.0943 -18.1209 0.0159918 -3.53945 0.000449481
511 1 10.7588 -16.3555 1.82349 -3.53934 0.00110496
512 1 12.8776 -17.7678 -1.79151 -3.53961 0.00041148
513 1 12.5355 -16 0.0159919 -3.53975 0.000520475
514 1 12.1911 -14.2273 1.82349 -3.54012 0.000357895
515 1 14.6562 -17.4114 -3.59901 -3.53985 0.000246674
516 1 14.3092 -15.642 -1.79151 -3.54002 0.000208493
517 1 13.9604 -13.8693 0.0159919 -3.54022 0.000130817
518 1 13.6103 -12.0935 1.82349 -3.54034 9.22485e-05
519 1 16.0815 -15.2832 -3.59901 -3.54014 8.45814e-05
520 1 15.7301 -13.5106 -1.79151 -3.54023 5.89289e-05
521 1 15.3779 -11.7358 0.015992 -3.54026 5.39031e-05
522 1 15.0252 -9.9591 1.82349 -3.54024 5.2884e-05
523 1 17.4999 -13.1517 -3.59901 -3.54021 3.07754e-05
524 1 17.1462 -11.3775 -1.79151 -3.54022 3.1793e-05
525 1 16.7919 -9.60165 0.0159921 -3.54023 3.38315e-05
526 1 16.4369 -7.82426 1.82349 -3.54023 3.0436e-05
527 1 18.9148 -11.019 -3.59901 -3.54021 1.74894e-05
528 1 18.5593 -9.24377 -1.79151 -3.54022 1.91655e-05
529 1 18.2032 -7.46726 0.0159922 -3.54023 1.95347e-05
530 1 17.8465 -5.6897 1.82349 -3.54024 1.79295e-05
531 1 20.3274 -8.88589 -3.59901 -3.54022 1.00946e-05
532 1 19.9706 -7.11012 -1.79151 -3.54023 1.22895e-05
533 1 19.6133 -5.33352 0.015993 -3.54024 1.49378e-05
534 1 19.2558 -3.55633 1.82349 -3.54026 1.93618e-05
535 1 21.7389 -6.75316 -3.59901 -3.54024 8.65555e-06
536 1 21.3815 -4.97746 -1.79151 -3.54026 1.37375e-05
537 1 21.024 -3.20138 0.0159932 -3.54028 2.10587e-05
538 1 20.6666 -1.42524 1.82349 -3.54029 2.99133e-05
539 1 23.1508 -4.62172 -3.59901 -3.54026 1.31562e-05
540 1 22.7937 -2.84669 -1.79151 -3.54028 1.97265e-05
541 1 22.437 -1.07173 0.0159932 -3.54029 2.46326e-05
542 1 22.0809 0.702871 1.82349 -3.54028 2.48058e-05
543 1 24.5646 -2.49227 -3.59901 -3.54027 1.60542e-05
544 1 24.2086 -0.718314 -1.79151 -3.54027 1.77169e-05
545 1 23.8532 1.05533 0.0159933 -3.54026 1.61333e-05
546 1 23.4987 2.82852 1.82349 -3.54025 1.27086e-05
547 1 25.9811 -0.364933 -3.59901 -3.54025 1.18329e-05
548 1 25.6263 1.40796 -1.79151 -3.54025 1.02371e-05
549 1 25.2723 3.18051 0.0159935 -3.54025 7.96855e-06
550 1 24.9191 4.95264 1.82349 -3.54024 5.78808e-06
551 1 27.3999 1.76077 -3.59901 -3.54024 6.14508e-06
552 1 27.0464 3.53282 -1.79151 -3.54024 4.57728e-06
553 1 26.6935 5.30459 0.0159936 -3.54024 3.04223e-06
554 1 26.3412 7.07602 1.82349 -3.54023 1.98154e-06
555 1 28.8205 3.88549 -3.59901 -3.54023 2.33335e-06
556 1 28.4679 5.65701 -1.79151 -3.54023 1.59033e-06
557 1 28.1157 7.42836 0.0159937 -3.54021 1.64593e-06
558 1 27.7638 9.19958 1.82349 -3.5402 3.32889e-06
559 1 30.2421 6.00991 -3.59901 -3.54021 1.16144e-06
560 1 29.8898 7.78128 -1.79151 -3.54021 2.08048e-06
561 1 29.5377 9.55268 0.0159938 -3.5402 4.10759e-06
562 1 29.1856 11.3242 1.82349 -3.54019 6.48673e-06
563 1 31.6635 8.13472 -3.59901 -3.5402 2.62411e-06
564 1 31.3111 9.90632 -1.79151 -3.5402 4.36717e-06
565 1 30.9585 11.6781 0.0159938 -3.5402 5.50334e-06
566 1 30.6055 13.4502 1.82349 -3.5402 5.70791e-06
567 1 33.084 10.2604 -3.59901 -3.54021 4.00931e-06
568 1 32.7309 12.0325 -1.79151 -3.5402 4.00066e-06
569 1 32.3775 13.8048 0.0159939 -3.5402 3.61617e-06
570 1 32.0237 15.5774 1.82349 -3.5402 3.21643e-06
571 1 34.503 12.3871 -3.59901 -3.5402 2.33074e-06
572 1 34.1492 14.1596 -1.79151 -3.5402 2.17095e-06
573 1 33.7951 15.9324 0.015994 -3.54021 2.14499e-06
574 1 33.4405 17.7054 1.82349 -3.54022 1.71288e-06
575 1 35.9209 14.5145 -3.59901 -3.54021 1.68215e-06
576 1 35.5664 16.2874 -1.79151 -3.54022 1.77595e-06
577 1 35.2115 18.0605 0.015994 -3.54023 9.84648e-07
578 1 37.3377 16.6424 -3.59901 -3.54024 1.50767e-06
579 1 36.9825 18.4156 -1.79151 -3.54023 2.15777e-07