ITEM: TIMESTEP
0
ITEM: NUMBER OF ATOMS
2504
ITEM: BOX BOUNDS xy xz yz mm pp pp
-5.5498871899999997e+01 5.5498871899999997e+01 0.0000000000000000e+00
-1.8432957300000002e+01 1.8432957300000002e+01 0.0000000000000000e+00
-3.6150000000000002e+00 3.6150000000000002e+00 0.0000000000000000e+00
ITEM: ATOMS id type x y z c_eng c_csym
1 1 0.632888 16.7576 -3.60316 -3.44061 3.57284
2 1 0.290211 -18.2923 -1.79566 -3.28274 9.06857
3 1 0.991822 13.0425 -3.60316 -3.49768 0.323195
4 1 0.858454 14.7976 -1.79566 -3.50389 0.585116
5 1 0.632888 16.7576 0.0118436 -3.44061 3.57284
6 1 0.290211 -18.2923 1.81934 -3.28274 9.06857
7 1 2.58262 15.1762 -3.60316 -3.54095 0.11945
8 1 2.28657 17.0131 -1.79566 -3.52048 0.0816938
9 1 3.97527 17.3754 -3.60316 -3.54483 0.0297475
10 1 0.530213 7.42311 -3.60316 -3.5165 1.19558
11 1 0.184952 9.18414 -1.79566 -3.35062 3.33739
12 1 1.8225 9.61344 -3.60316 -3.496 0.264624
13 1 1.33832 11.3766 -1.79566 -3.49559 0.341161
14 1 0.991822 13.0425 0.0118437 -3.49768 0.323195
15 1 0.858454 14.7976 1.81934 -3.50389 0.585116
16 1 3.20532 11.6999 -3.60316 -3.52409 0.0375623
17 1 2.89981 13.41 -1.79566 -3.51458 0.0679962
18 1 2.58262 15.1762 0.0118438 -3.54095 0.11945
19 1 2.28657 17.0131 1.81934 -3.52048 0.0816938
20 1 4.69247 13.7865 -3.60316 -3.53327 0.0131912
21 1 4.34246 15.559 -1.79566 -3.538 0.0139129
22 1 3.97527 17.3754 0.0118439 -3.54483 0.0297475
23 1 6.09715 15.9349 -3.60316 -3.541 0.00273133
24 1 5.73122 17.7199 -1.79566 -3.54491 0.0136815
25 1 7.51818 18.06 -3.60316 -3.54146 0.00298335
26 1 1.09121 3.78507 -3.60316 -3.52685 0.151166
27 1 0.83794 5.56061 -1.79566 -3.53876 0.1147
28 1 0.530213 7.42311 0.0118436 -3.5165 1.19553
29 1 0.184952 9.18414 1.81934 -3.35124 3.33739
30 1 2.57949 5.94434 -3.60316 -3.54171 0.0386058
31 1 2.24415 7.74944 -1.79566 -3.52411 0.039565
32 1 1.8225 9.61344 0.0118438 -3.496 0.264624
33 1 1.33832 11.3766 1.81934 -3.49558 0.341161
34 1 3.95216 8.13805 -3.60316 -3.54395 0.015911
35 1 3.56184 9.93821 -1.79566 -3.54287 0.0474963
36 1 3.20532 11.6999 0.0118439 -3.52409 0.0375623
37 1 2.89981 13.41 1.81934 -3.51458 0.0679962
38 1 5.35458 10.2699 -3.60316 -3.54207 0.00625616
39 1 5.02559 12.0266 -1.79566 -3.53455 0.00678595
40 1 4.69247 13.7865 0.0118445 -3.53327 0.0131912
41 1 4.34246 15.559 1.81934 -3.538 0.0139129
42 1 6.81093 12.3793 -3.60316 -3.53811 0.00282015
43 1 6.46193 14.1523 -1.79566 -3.53813 0.00181169
44 1 6.09715 15.9349 0.0118445 -3.541 0.00273133
45 1 5.73122 17.7199 1.81934 -3.54491 0.0136815
46 1 8.22847 14.5141 -3.60316 -3.54067 0.000425452
47 1 7.86858 16.2899 -1.79566 -3.54152 0.00251659
48 1 7.51818 18.06 0.0118446 -3.54146 0.00298335
49 1 9.65179 16.6381 -3.60316 -3.54079 0.000813235
50 1 9.30977 18.4027 -1.79566 -3.53976 0.000384737
51 1 0.544207 -1.80862 -3.60316 -3.52256 0.999155
52 1 0.206511 -0.0621627 -1.79566 -3.37477 2.67207
53 1 1.90891 0.33478 -3.60316 -3.51506 0.161438
54 1 1.47048 2.08745 -1.79566 -3.511 0.168167
55 1 1.09121 3.78507 0.0118437 -3.52685 0.151114
56 1 0.83794 5.56061 1.81934 -3.5382 0.1147
57 1 3.28633 2.45104 -3.60316 -3.53018 0.0148729
58 1 2.93516 4.18363 -1.79566 -3.52925 0.0190286
59 1 2.57949 5.94434 0.0118438 -3.54171 0.0386058
60 1 2.24415 7.74944 1.81934 -3.52419 0.039565
61 1 4.71398 4.57009 -3.60316 -3.53577 0.00468202
62 1 4.34185 6.339 -1.79566 -3.53793 0.00571295
63 1 3.95216 8.13805 0.0118439 -3.54395 0.015911
64 1 3.56184 9.93821 1.81934 -3.54287 0.0474963
65 1 6.09695 6.724 -3.60316 -3.54085 0.00230158
66 1 5.71441 8.50094 -1.79566 -3.54371 0.00966364
67 1 5.35458 10.2699 0.0118445 -3.54207 0.00625616
68 1 5.02559 12.0266 1.81934 -3.53455 0.00678595
69 1 7.50111 8.8548 -3.60316 -3.54083 0.00194751
70 1 7.15216 10.6151 -1.79566 -3.53906 0.000906793
71 1 6.81093 12.3793 0.0118446 -3.53811 0.00282015
72 1 6.46193 14.1523 1.81934 -3.53813 0.00181169
73 1 8.93813 10.9712 -3.60316 -3.53909 0.000549618
74 1 8.58605 12.7394 -1.79566 -3.53961 0.000512506
75 1 8.22847 14.5141 0.0118447 -3.54067 0.000425452
76 1 7.86858 16.2899 1.81934 -3.54152 0.00251659
77 1 10.3605 13.0989 -3.60316 -3.54044 9.65001e-05
78 1 10.0036 14.8695 -1.79566 -3.54103 0.00062899
79 1 9.65179 16.6381 0.0118447 -3.54079 0.000813235
80 1 9.30977 18.4027 1.81934 -3.53976 0.000384737
81 1 11.7852 15.2219 -3.60315 -3.54058 0.000250365
82 1 11.4378 16.987 -1.79565 -3.5401 0.000125774
83 1 13.2213 17.339 -3.60315 -3.53988 0.000105628
84 1 1.12846 -5.40136 -3.60316 -3.51998 0.189754
85 1 0.855393 -3.65503 -1.79566 -3.54387 0.12201
86 1 0.544207 -1.80862 0.0118436 -3.52256 0.999103
87 1 0.206511 -0.0621627 1.81934 -3.37504 2.67207
88 1 2.62168 -3.25487 -3.60316 -3.54386 0.0325056
89 1 2.28793 -1.48348 -1.79566 -3.53283 0.0250776
90 1 1.90891 0.33478 0.0118438 -3.51506 0.161411
91 1 1.47048 2.08745 1.81934 -3.51147 0.168167
92 1 4.03121 -1.09373 -3.60316 -3.54426 0.00483176
93 1 3.65488 0.684977 -1.79566 -3.54157 0.00884185
94 1 3.28633 2.45104 0.0118439 -3.53018 0.0148729
95 1 2.93516 4.18363 1.81934 -3.52933 0.0190286
96 1 5.42981 1.04521 -3.60316 -3.54186 0.0009385
97 1 5.07438 2.80657 -1.79566 -3.53765 0.00189425
98 1 4.71398 4.57009 0.0118445 -3.53577 0.00468202
99 1 4.34185 6.339 1.81934 -3.53793 0.00571295
100 1 6.84647 3.17415 -3.60316 -3.53926 0.000887256
101 1 6.47797 4.94596 -1.79566 -3.53886 0.000819813
102 1 6.09695 6.724 0.0118445 -3.54085 0.00230158
103 1 5.71441 8.50094 1.81934 -3.54371 0.00966364
104 1 8.24098 5.3156 -3.60316 -3.54064 0.000589451
105 1 7.86676 7.08843 -1.79566 -3.54129 0.00230511
106 1 7.50111 8.8548 0.0118446 -3.54083 0.00194751
107 1 7.15216 10.6151 1.81934 -3.53906 0.000906793
108 1 9.6466 7.44443 -3.60316 -3.54055 0.000707715
109 1 9.2895 9.20804 -1.79566 -3.53957 0.000175472
110 1 8.93813 10.9712 0.0118447 -3.53909 0.000549618
111 1 8.58605 12.7394 1.81934 -3.53961 0.000512506
112 1 11.0723 9.56351 -3.60315 -3.53958 8.18549e-05
113 1 10.7172 11.3298 -1.79565 -3.53973 9.47992e-05
114 1 10.3605 13.0989 0.0118448 -3.54044 9.65001e-05
115 1 10.0036 14.8695 1.81934 -3.54103 0.00062899
116 1 12.4946 11.687 -3.60315 -3.54019 2.16341e-05
117 1 12.1384 13.4549 -1.79565 -3.54055 0.000158788
118 1 11.7852 15.2219 0.0118454 -3.54058 0.000250365
119 1 11.4378 16.987 1.81935 -3.5401 0.000125774
120 1 13.9188 13.8086 -3.60315 -3.54036 7.89978e-05
121 1 13.5682 15.574 -1.79565 -3.54017 4.64355e-05
122 1 13.2213 17.339 0.0118455 -3.53988 0.000105628
123 1 15.3495 15.9273 -3.60315 -3.54001 3.80839e-05
124 1 15.0012 17.6935 -1.79565 -3.53992 0.000107224
125 1 16.7781 18.0494 -3.60315 -3.54002 7.00163e-05
126 1 0.688717 -10.9104 -3.60316 -3.4582 3.07573
127 1 0.389093 -9.13286 -1.79566 -3.3009 8.43233
128 1 2.02964 -8.79061 -3.60316 -3.48747 0.403922
129 1 1.56337 -7.0357 -1.79566 -3.47603 0.394433
130 1 1.12846 -5.40136 0.0118437 -3.51998 0.189701
131 1 0.855393 -3.65503 1.81934 -3.54336 0.12201
132 1 3.36846 -6.69916 -3.60316 -3.52615 0.0605893
133 1 2.99828 -4.9777 -1.79566 -3.52359 0.0303484
134 1 2.62168 -3.25487 0.0118438 -3.54386 0.0325056
135 1 2.28793 -1.48348 1.81934 -3.53296 0.0250776
136 1 4.78393 -4.60839 -3.60316 -3.53418 0.011924
137 1 4.41124 -2.85822 -1.79566 -3.53696 0.00423439
138 1 4.03121 -1.09373 0.0118444 -3.54426 0.00483176
139 1 3.65488 0.684977 1.81934 -3.54161 0.00884185
140 1 6.17796 -2.48313 -3.60316 -3.53872 0.00226638
141 1 5.79975 -0.717817 -1.79566 -3.54151 0.00124123
142 1 5.42981 1.04521 0.0118445 -3.54186 0.0009385
143 1 5.07438 2.80657 1.81934 -3.53765 0.00189425
144 1 7.57379 -0.355267 -3.60316 -3.53994 0.000750323
145 1 7.20923 1.40841 -1.79566 -3.53961 0.000293395
146 1 6.84647 3.17415 0.0118446 -3.53926 0.000887256
147 1 6.47797 4.94596 1.81934 -3.53886 0.000819813
148 1 8.98113 1.77129 -3.60316 -3.53934 0.000365138
149 1 8.61362 3.54197 -1.79566 -3.53977 0.000215646
150 1 8.24098 5.3156 0.0118447 -3.54064 0.000589451
151 1 7.86676 7.08843 1.81934 -3.54129 0.00230511
152 1 10.3807 3.90457 -3.60315 -3.54025 0.000264959
153 1 10.0117 5.67639 -1.79566 -3.54077 0.000713337
154 1 9.6466 7.44443 0.0118447 -3.54055 0.000707715
155 1 9.2895 9.20804 1.81934 -3.53957 0.000175472
156 1 11.7876 6.03154 -3.60315 -3.54036 0.000325803
157 1 11.4281 7.79839 -1.79565 -3.53997 0.000112436
158 1 11.0723 9.56351 0.0118453 -3.53958 8.18549e-05
159 1 10.7172 11.3298 1.81935 -3.53973 9.47992e-05
160 1 13.2074 8.15218 -3.60315 -3.53988 4.07658e-05
161 1 12.8511 9.91935 -1.79565 -3.53989 2.44004e-05
162 1 12.4946 11.687 0.0118454 -3.54019 2.16341e-05
163 1 12.1384 13.4549 1.81935 -3.54055 0.000158788
164 1 14.6284 10.274 -3.60315 -3.54013 2.26791e-05
165 1 14.2727 12.0418 -1.79565 -3.54031 5.34705e-05
166 1 13.9188 13.8086 0.0118456 -3.54036 7.89978e-05
167 1 13.5682 15.574 1.81935 -3.54017 4.64355e-05
168 1 16.0515 12.395 -3.60315 -3.54025 3.58016e-05
169 1 15.6994 14.1615 -1.79565 -3.54017 2.27878e-05
170 1 15.3495 15.9273 0.0118457 -3.54001 3.80839e-05
171 1 15.0012 17.6935 1.81935 -3.53992 0.000107224
172 1 17.4787 14.5147 -3.60315 -3.54008 2.06117e-05
173 1 17.1283 16.2817 -1.79565 -3.54001 4.72293e-05
174 1 16.7781 18.0494 0.0118459 -3.54002 7.00163e-05
175 1 18.9047 16.6368 -3.60315 -3.54007 3.84652e-05
176 1 18.5531 18.4058 -1.79565 -3.5401 3.84899e-05
177 1 1.01234 -14.5668 -3.60316 -3.4839 0.464748
178 1 0.896118 -12.8238 -1.79566 -3.51895 0.495032
179 1 0.688717 -10.9104 0.0118436 -3.4582 3.07573
180 1 0.389093 -9.13286 1.81934 -3.30035 8.43233
181 1 2.64893 -12.4705 -3.60316 -3.54305 0.124308
182 1 2.37857 -10.6643 -1.79566 -3.5296 0.0798019
183 1 2.02964 -8.79061 0.0118438 -3.48747 0.403895
184 1 1.56337 -7.0357 1.81934 -3.47658 0.394433
185 1 4.08586 -10.3043 -3.60316 -3.54564 0.0187235
186 1 3.73187 -8.49024 -1.79566 -3.54173 0.0186704
187 1 3.36846 -6.69916 0.0118439 -3.52615 0.0605893
188 1 2.99828 -4.9777 1.81934 -3.52367 0.0303484
189 1 5.48224 -8.15898 -3.60316 -3.54401 0.00301728
190 1 5.13956 -6.37732 -1.79566 -3.53856 0.00408438
191 1 4.78393 -4.60839 0.0118445 -3.53418 0.011924
192 1 4.41124 -2.85822 1.81934 -3.53696 0.00423439
193 1 6.90126 -6.03512 -3.60316 -3.5402 0.000539973
194 1 6.54712 -4.25642 -1.79566 -3.53853 0.00210651
195 1 6.17796 -2.48313 0.0118445 -3.53872 0.00226638
196 1 5.79975 -0.717817 1.81934 -3.54151 0.00124123
197 1 8.30525 -3.90339 -3.60316 -3.54026 0.00022145
198 1 7.94124 -2.12548 -1.79566 -3.5401 0.000857534
199 1 7.57379 -0.355267 0.0118446 -3.53994 0.000750323
200 1 7.20923 1.40841 1.81934 -3.53961 0.000293395
201 1 9.70617 -1.77253 -3.60316 -3.54031 0.000181506
202 1 9.34473 0.00102745 -1.79566 -3.53962 0.000318054
203 1 8.98113 1.77129 0.0118447 -3.53934 0.000365138
204 1 8.61362 3.54197 1.81934 -3.53977 0.000215646
205 1 11.1118 0.356305 -3.60315 -3.53981 0.000115646
206 1 10.7483 2.13094 -1.79565 -3.53977 0.000165677
207 1 10.3807 3.90457 0.0118453 -3.54025 0.000264959
208 1 10.0117 5.67639 1.81934 -3.54077 0.000713337
209 1 12.5151 2.48717 -3.60315 -3.54019 0.000129445
210 1 12.1508 4.26108 -1.79565 -3.54038 0.000302783
211 1 11.7876 6.03154 0.0118454 -3.54036 0.000325803
212 1 11.4281 7.79839 1.81935 -3.53997 0.000112436
213 1 13.9234 4.61394 -3.60315 -3.5403 0.000161342
214 1 13.5645 6.38424 -1.79565 -3.54009 9.94514e-05
215 1 13.2074 8.15218 0.0118455 -3.53988 4.07658e-05
216 1 12.8511 9.91935 1.81935 -3.53989 2.44004e-05
217 1 15.3405 6.73621 -3.60315 -3.54006 3.55213e-05
218 1 14.9844 8.50553 -1.79565 -3.54001 2.49142e-05
219 1 14.6284 10.274 0.0118456 -3.54013 2.26791e-05
220 1 14.2727 12.0418 1.81935 -3.54031 5.34705e-05
221 1 16.7604 8.8581 -3.60315 -3.54015 2.08789e-05
222 1 16.4055 10.6272 -1.79565 -3.54022 3.07686e-05
223 1 16.0515 12.395 0.0118458 -3.54025 3.58016e-05
224 1 15.6994 14.1615 1.81935 -3.54017 2.27878e-05
225 1 18.1826 10.9793 -3.60315 -3.54022 2.03908e-05
226 1 17.83 12.7475 -1.79565 -3.54017 1.65309e-05
227 1 17.4787 14.5147 0.0118459 -3.54008 2.06117e-05
228 1 17.1283 16.2817 1.81935 -3.54001 4.72293e-05
229 1 19.6073 13.1001 -3.60315 -3.54013 1.32545e-05
230 1 19.256 14.8684 -1.79565 -3.54008 2.54395e-05
231 1 18.9047 16.6368 0.0118461 -3.54007 3.84652e-05
232 1 18.5531 18.4058 1.81935 -3.5401 3.84899e-05
233 1 21.0315 15.2225 -3.60315 -3.54011 2.26153e-05
234 1 20.6794 16.9921 -1.79565 -3.54012 2.56206e-05
235 1 22.4529 17.3476 -3.60315 -3.54015 1.6028e-05
236 1 1.89612 -17.94 -3.60316 -3.45482 0.640608
237 1 1.38175 -16.1716 -1.79566 -3.43815 0.695325
238 1 1.01234 -14.5668 0.0118437 -3.4839 0.464748
239 1 0.896118 -12.8238 1.81934 -3.51895 0.495032
240 1 3.26419 -15.8887 -3.60316 -3.51761 0.0848053
241 1 2.95971 -14.1968 -1.79566 -3.50888 0.0724632
242 1 2.64893 -12.4705 0.0118438 -3.54305 0.124308
243 1 2.37857 -10.6643 1.81934 -3.52964 0.0798019
244 1 4.76953 -13.8453 -3.60316 -3.53107 0.0194563
245 1 4.43516 -12.0936 -1.79566 -3.53649 0.0155354
246 1 4.08586 -10.3043 0.0118444 -3.54564 0.0187235
247 1 3.73187 -8.49024 1.81934 -3.54176 0.0186704
248 1 6.19574 -11.7237 -3.60316 -3.53891 0.00148352
249 1 5.83553 -9.94402 -1.79566 -3.54319 0.00231395
250 1 5.48224 -8.15898 0.0118445 -3.54401 0.00301728
251 1 5.13956 -6.37732 1.81934 -3.53856 0.00408438
252 1 7.60015 -9.58986 -3.60316 -3.54081 0.000245941
253 1 7.24922 -7.81377 -1.79566 -3.54091 0.000309172
254 1 6.90126 -6.03512 0.0118446 -3.5402 0.000539973
255 1 6.54712 -4.25642 1.81934 -3.53853 0.00210651
256 1 9.01573 -7.46203 -3.60316 -3.53995 9.90115e-05
257 1 8.66275 -5.68379 -1.79566 -3.5402 0.000188487
258 1 8.30525 -3.90339 0.0118447 -3.54026 0.00022145
259 1 7.94124 -2.12548 1.81934 -3.5401 0.000857534
260 1 10.4247 -5.32958 -3.60315 -3.54025 3.27828e-05
261 1 10.0664 -3.55021 -1.79565 -3.54055 5.46342e-05
262 1 9.70617 -1.77253 0.0118447 -3.54031 0.000181506
263 1 9.34473 0.00102745 1.81934 -3.53962 0.000318054
264 1 11.8305 -3.19696 -3.60315 -3.54036 1.55286e-05
265 1 11.472 -1.41962 -1.79565 -3.54016 3.08004e-05
266 1 11.1118 0.356305 0.0118453 -3.53981 0.000115646
267 1 10.7483 2.13094 1.81935 -3.53977 0.000165677
268 1 13.2378 -1.06592 -3.60315 -3.54011 1.21229e-05
269 1 12.8777 0.711095 -1.79565 -3.54008 3.98658e-05
270 1 12.5151 2.48717 0.0118454 -3.54019 0.000129445
271 1 12.1508 4.26108 1.81935 -3.54038 0.000302783
272 1 14.6444 1.06493 -3.60315 -3.54026 4.44415e-05
273 1 14.2838 2.84063 -1.79565 -3.54033 0.000118934
274 1 13.9234 4.61394 0.0118456 -3.5403 0.000161342
275 1 13.5645 6.38424 1.81935 -3.54009 9.94514e-05
276 1 16.0547 3.19255 -3.60315 -3.54031 7.02023e-05
277 1 15.6971 4.9654 -1.79565 -3.5402 5.84996e-05
278 1 15.3405 6.73621 0.0118457 -3.54006 3.55213e-05
279 1 14.9844 8.50553 1.81935 -3.54001 2.49142e-05
280 1 17.4709 5.3166 -3.60315 -3.54017 2.10281e-05
281 1 17.1156 7.08793 -1.79565 -3.54012 1.74407e-05
282 1 16.7604 8.8581 0.0118459 -3.54015 2.08789e-05
283 1 16.4055 10.6272 1.81935 -3.54022 3.07686e-05
284 1 18.8903 7.43946 -3.60315 -3.54019 1.17077e-05
285 1 18.5362 9.20999 -1.79565 -3.54022 1.71488e-05
286 1 18.1826 10.9793 0.011846 -3.54022 2.03908e-05
287 1 17.83 12.7475 1.81935 -3.54017 1.65309e-05
288 1 20.3118 9.56161 -3.60315 -3.54023 9.65018e-06
289 1 19.9592 11.3313 -1.79565 -3.54019 9.9311e-06
290 1 19.6073 13.1001 0.0118467 -3.54013 1.32545e-05
291 1 19.256 14.8684 1.81935 -3.54008 2.54395e-05
292 1 21.7351 11.6835 -3.60315 -3.54017 6.87248e-06
293 1 21.3833 13.4531 -1.79565 -3.54013 1.40081e-05
294 1 21.0315 15.2225 0.0118469 -3.54011 2.26153e-05
295 1 20.6794 16.9921 1.81935 -3.54012 2.56206e-05
296 1 23.158 13.8066 -3.60315 -3.54015 1.2643e-05
297 1 22.8057 15.577 -1.79565 -3.54014 1.6449e-05
298 1 22.4529 17.3476 0.011847 -3.54015 1.6028e-05
299 1 24.5788 15.9316 -3.60315 -3.54017 1.08939e-05
300 1 24.2254 17.703 -1.79565 -3.54018 9.8776e-06
301 1 25.9974 18.0584 -3.60315 -3.54019 5.9919e-06
302 1 1.89612 -17.94 0.0118438 -3.45482 0.640608
303 1 1.38175 -16.1716 1.81934 -3.43815 0.695325
304 1 3.60816 -17.6666 -1.79566 -3.54221 0.0654777
305 1 3.26419 -15.8887 0.0118439 -3.51761 0.0848053
306 1 2.95971 -14.1968 1.81934 -3.50888 0.0724632
307 1 5.39043 -17.3656 -3.60316 -3.54403 0.0106496
308 1 5.0827 -15.6007 -1.79566 -3.53535 0.00832547
309 1 4.76953 -13.8453 0.0118445 -3.53107 0.0194563
310 1 4.43516 -12.0936 1.81934 -3.53649 0.0155354
311 1 6.86894 -15.2741 -3.60316 -3.53855 0.00413449
312 1 6.54282 -13.5011 -1.79566 -3.53726 0.00512865
313 1 6.19574 -11.7237 0.0118445 -3.53891 0.00148352
314 1 5.83553 -9.94402 1.81934 -3.54319 0.00231395
315 1 8.30428 -13.1503 -3.60316 -3.5399 0.000809988
316 1 7.95476 -11.3687 -1.79566 -3.5403 0.000190094
317 1 7.60015 -9.58986 0.0118446 -3.54081 0.000245941
318 1 7.24922 -7.81377 1.81934 -3.54091 0.000309172
319 1 9.71778 -11.0173 -3.60316 -3.54054 4.27277e-05
320 1 9.36703 -9.23897 -1.79566 -3.54006 1.30038e-05
321 1 9.01573 -7.46203 0.0118447 -3.53995 9.90115e-05
322 1 8.66275 -5.68379 1.81934 -3.5402 0.000188487
323 1 11.1329 -8.88685 -3.60315 -3.54004 3.43616e-05
324 1 10.7803 -7.10855 -1.79565 -3.53995 5.55248e-05
325 1 10.4247 -5.32958 0.0118453 -3.54025 3.27828e-05
326 1 10.0664 -3.55021 1.81935 -3.54055 5.46342e-05
327 1 12.5443 -6.7543 -3.60315 -3.54015 2.08461e-05
328 1 12.1882 -4.97542 -1.79565 -3.54028 1.2216e-05
329 1 11.8305 -3.19696 0.0118454 -3.54036 1.55286e-05
330 1 11.472 -1.41962 1.81935 -3.54016 3.08004e-05
331 1 13.9531 -4.62135 -3.60315 -3.54025 7.79443e-06
332 1 13.596 -2.84341 -1.79565 -3.5402 5.0983e-06
333 1 13.2378 -1.06592 0.0118455 -3.54011 1.21229e-05
334 1 12.8777 0.711095 1.81935 -3.54008 3.98658e-05
335 1 15.3622 -2.48944 -3.60315 -3.54018 5.57131e-06
336 1 15.004 -0.712027 -1.79565 -3.54018 1.1879e-05
337 1 14.6444 1.06493 0.0118456 -3.54026 4.44415e-05
338 1 14.2838 2.84063 1.81935 -3.54033 0.000118934
339 1 16.7714 -0.358451 -3.60315 -3.54026 2.19307e-05
340 1 16.413 1.41773 -1.79565 -3.54031 4.90693e-05
341 1 16.0547 3.19255 0.0118458 -3.54031 7.02023e-05
342 1 15.6971 4.9654 1.81935 -3.5402 5.84996e-05
343 1 18.1833 1.76991 -3.60315 -3.5403 3.49289e-05
344 1 17.8268 3.54395 -1.79565 -3.54025 3.13135e-05
345 1 17.4709 5.3166 0.0118459 -3.54017 2.10281e-05
346 1 17.1156 7.08793 1.81935 -3.54012 1.74407e-05
347 1 19.5995 3.89539 -3.60315 -3.54023 1.39882e-05
348 1 19.2448 5.66791 -1.79565 -3.5402 1.0175e-05
349 1 18.8903 7.43946 0.0118466 -3.54019 1.17077e-05
350 1 18.5362 9.20999 1.81935 -3.54022 1.71488e-05
351 1 21.0186 6.01939 -3.60315 -3.54022 6.63037e-06
352 1 20.665 7.79095 -1.79565 -3.54023 7.95003e-06
353 1 20.3118 9.56161 0.0118468 -3.54023 9.65018e-06
354 1 19.9592 11.3313 1.81935 -3.54019 9.9311e-06
355 1 22.4397 8.14258 -3.60315 -3.54023 4.0892e-06
356 1 22.0871 9.91336 -1.79565 -3.54021 4.31968e-06
357 1 21.7351 11.6835 0.011847 -3.54017 6.87248e-06
358 1 21.3833 13.4531 1.81935 -3.54013 1.40081e-05
359 1 23.862 10.2655 -3.60315 -3.5402 2.94864e-06
360 1 23.51 12.0361 -1.79565 -3.54017 6.93202e-06
361 1 23.158 13.8066 0.0118471 -3.54015 1.2643e-05
362 1 22.8057 15.577 1.81935 -3.54014 1.6449e-05
363 1 25.284 12.3893 -3.60315 -3.54018 6.71672e-06
364 1 24.9316 14.1604 -1.79565 -3.54017 9.78935e-06
365 1 24.5788 15.9316 0.0118473 -3.54017 1.08939e-05
366 1 24.2254 17.703 1.81935 -3.54018 9.8776e-06
367 1 26.7045 14.5146 -3.60315 -3.54018 6.91207e-06
368 1 26.3512 16.2864 -1.79565 -3.54019 6.87757e-06
369 1 25.9974 18.0584 0.0118475 -3.54019 5.9919e-06
370 1 28.1232 16.6413 -3.60315 -3.5402 4.18194e-06
371 1 27.769 18.4137 -1.79565 -3.5402 3.52774e-06
372 1 3.60816 -17.6666 1.81934 -3.54221 0.0654777
373 1 5.39043 -17.3656 0.0118445 -3.54403 0.0106496
374 1 5.0827 -15.6007 1.81934 -3.53535 0.00832547
375 1 7.18773 -17.0416 -1.79566 -3.53999 0.00187198
376 1 6.86894 -15.2741 0.0118446 -3.53855 0.00413449
377 1 6.54282 -13.5011 1.81934 -3.53726 0.00512865
378 1 8.9761 -16.6989 -3.60316 -3.53918 0.00133687
379 1 8.64366 -14.9287 -1.79566 -3.53943 0.00203124
380 1 8.30428 -13.1503 0.0118447 -3.5399 0.000809988
381 1 7.95476 -11.3687 1.81934 -3.5403 0.000190094
382 1 10.4137 -14.5748 -3.60316 -3.54004 0.00059734
383 1 10.0673 -12.7971 -1.79566 -3.54058 0.000171783
384 1 9.71778 -11.0173 0.0118447 -3.54054 4.27277e-05
385 1 9.36703 -9.23897 1.81934 -3.54006 1.30038e-05
386 1 11.8337 -12.4425 -3.60315 -3.5405 7.85198e-05
387 1 11.4837 -10.6649 -1.79565 -3.54036 3.59226e-05
388 1 11.1329 -8.88685 0.0118453 -3.54004 3.43616e-05
389 1 10.7803 -7.10855 1.81935 -3.53995 5.55248e-05
390 1 13.2507 -10.3104 -3.60315 -3.54024 4.58134e-05
391 1 12.8984 -8.53285 -1.79565 -3.54014 3.80038e-05
392 1 12.5443 -6.7543 0.0118454 -3.54015 2.08461e-05
393 1 12.1882 -4.97542 1.81935 -3.54028 1.2216e-05
394 1 14.6643 -8.17752 -3.60315 -3.54023 2.62931e-05
395 1 14.3093 -6.39959 -1.79565 -3.54025 1.3645e-05
396 1 13.9531 -4.62135 0.0118456 -3.54025 7.79443e-06
397 1 13.596 -2.84341 1.81935 -3.5402 5.0983e-06
398 1 16.0756 -6.04443 -3.60315 -3.54026 1.17033e-05
399 1 15.7193 -4.26697 -1.79565 -3.54022 7.09251e-06
400 1 15.3622 -2.48944 0.0118457 -3.54018 5.57131e-06
401 1 15.004 -0.712027 1.81935 -3.54018 1.1879e-05
402 1 17.4864 -3.91222 -3.60315 -3.54022 8.11476e-06
403 1 17.1292 -2.13528 -1.79565 -3.54022 9.71953e-06
404 1 16.7714 -0.358451 0.0118459 -3.54026 2.19307e-05
405 1 16.413 1.41773 1.81935 -3.54031 4.90693e-05
406 1 18.8975 -1.7812 -3.60315 -3.54026 1.52116e-05
407 1 18.5403 -0.00528704 -1.79565 -3.54029 2.60143e-05
408 1 18.1833 1.76991 0.011846 -3.5403 3.49289e-05
409 1 17.8268 3.54395 1.81935 -3.54025 3.13135e-05
410 1 20.3108 0.347633 -3.60315 -3.54029 2.10815e-05
411 1 19.9549 2.12194 -1.79565 -3.54027 1.97933e-05
412 1 19.5995 3.89539 0.0118467 -3.54023 1.39882e-05
413 1 19.2448 5.66791 1.81935 -3.5402 1.0175e-05
414 1 21.7272 2.47408 -3.60315 -3.54025 1.10793e-05
415 1 21.3727 4.24707 -1.79565 -3.54023 7.74368e-06
416 1 21.0186 6.01939 0.0118469 -3.54022 6.63037e-06
417 1 20.665 7.79095 1.81935 -3.54023 7.95003e-06
418 1 23.1462 4.59903 -3.60315 -3.54024 5.0416e-06
419 1 22.7927 6.3711 -1.79565 -3.54024 4.2778e-06
420 1 22.4397 8.14258 0.011847 -3.54023 4.0892e-06
421 1 22.0871 9.91336 1.81935 -3.54021 4.31968e-06
422 1 24.5668 6.72314 -3.60315 -3.54023 2.23198e-06
423 1 24.2142 8.49456 -1.79565 -3.54022 1.80007e-06
424 1 23.862 10.2655 0.0118472 -3.5402 2.94864e-06
425 1 23.51 12.0361 1.81935 -3.54017 6.93202e-06
426 1 25.9884 8.84702 -3.60315 -3.54021 1.40012e-06
427 1 25.6362 10.6182 -1.79565 -3.54019 3.35054e-06
428 1 25.284 12.3893 0.0118474 -3.54018 6.71672e-06
429 1 24.9316 14.1604 1.81935 -3.54017 9.78935e-06
430 1 27.4099 10.9715 -3.60315 -3.54019 3.72507e-06
431 1 27.0574 12.743 -1.79565 -3.54019 5.75124e-06
432 1 26.7045 14.5146 0.0118476 -3.54018 6.91207e-06
433 1 26.3512 16.2864 1.81935 -3.54019 6.87757e-06
434 1 28.8301 13.0971 -3.60315 -3.5402 4.44303e-06
435 1 28.4769 14.8691 -1.79565 -3.5402 4.56976e-06
436 1 28.1232 16.6413 0.0118477 -3.5402 4.18194e-06
437 1 27.769 18.4137 1.81935 -3.5402 3.52774e-06
438 1 30.2488 15.2238 -3.60315 -3.5402 2.84235e-06
439 1 29.8948 16.9963 -1.79565 -3.5402 2.48431e-06
440 1 31.6662 17.3512 -3.60315 -3.54021 1.52351e-06
441 1 7.18773 -17.0416 1.81934 -3.53999 0.00187198
442 1 8.9761 -16.6989 0.0118447 -3.53918 0.00133687
443 1 8.64366 -14.9287 1.81934 -3.53943 0.00203124
444 1 11.0959 -18.1143 -3.60315 -3.53953 0.000340712
445 1 10.7559 -16.3472 -1.79566 -3.53949 0.000759456
446 1 10.4137 -14.5748 0.0118448 -3.54004 0.00059734
447 1 10.0673 -12.7971 1.81934 -3.54058 0.000171783
448 1 12.5308 -15.9914 -3.60315 -3.53991 0.000289684
449 1 12.1831 -14.2185 -1.79565 -3.54027 0.000157585
450 1 11.8337 -12.4425 0.0118454 -3.5405 7.85198e-05
451 1 11.4837 -10.6649 1.81935 -3.54036 3.59226e-05
452 1 13.9532 -13.8614 -3.60315 -3.54028 5.62743e-05
453 1 13.6021 -12.0867 -1.79565 -3.54032 4.75272e-05
454 1 13.2507 -10.3104 0.0118455 -3.54024 4.58134e-05
455 1 12.8984 -8.53285 1.81935 -3.54014 3.80038e-05
456 1 15.3712 -11.73 -3.60315 -3.54023 3.22609e-05
457 1 15.0182 -9.95445 -1.79565 -3.54022 3.48928e-05
458 1 14.6643 -8.17752 0.0118456 -3.54023 2.62931e-05
459 1 14.3093 -6.39959 1.81935 -3.54025 1.3645e-05
460 1 16.7862 -9.59766 -3.60315 -3.54023 2.01312e-05
461 1 16.4312 -7.82148 -1.79565 -3.54025 1.67447e-05
462 1 16.0756 -6.04443 0.0118458 -3.54026 1.17033e-05
463 1 15.7193 -4.26697 1.81935 -3.54022 7.09251e-06
464 1 18.1991 -7.46513 -3.60315 -3.54025 1.05193e-05
465 1 17.8429 -5.68892 -1.79565 -3.54024 9.57303e-06
466 1 17.4864 -3.91222 0.0118459 -3.54022 8.11476e-06
467 1 17.1292 -2.13528 1.81935 -3.54022 9.71953e-06
468 1 19.6113 -5.33324 -3.60315 -3.54024 7.85739e-06
469 1 19.2545 -3.55731 -1.79565 -3.54024 9.74164e-06
470 1 18.8975 -1.7812 0.0118466 -3.54026 1.52116e-05
471 1 18.5403 -0.00528704 1.81935 -3.54029 2.60143e-05
472 1 21.0238 -3.20247 -3.60315 -3.54026 1.11682e-05
473 1 20.6672 -1.42728 -1.79565 -3.54028 1.67413e-05
474 1 20.3108 0.347633 0.0118468 -3.54029 2.10815e-05
475 1 19.9549 2.12194 1.81935 -3.54027 1.97933e-05
476 1 22.438 -1.07352 -3.60315 -3.54027 1.39771e-05
477 1 22.0823 0.700514 -1.79565 -3.54027 1.40867e-05
478 1 21.7272 2.47408 0.011847 -3.54025 1.10793e-05
479 1 21.3727 4.24707 1.81935 -3.54023 7.74368e-06
480 1 23.8547 1.05348 -3.60315 -3.54025 8.88091e-06
481 1 23.5002 2.82646 -1.79565 -3.54024 6.77138e-06
482 1 23.1462 4.59903 0.0118471 -3.54024 5.0416e-06
483 1 22.7927 6.3711 1.81935 -3.54024 4.2778e-06
484 1 25.2735 3.17909 -3.60315 -3.54024 4.26481e-06
485 1 24.9199 4.9513 -1.79565 -3.54024 3.13791e-06
486 1 24.5668 6.72314 0.0118473 -3.54023 2.23198e-06
487 1 24.2142 8.49456 1.81935 -3.54022 1.80007e-06
488 1 26.6938 5.3039 -3.60315 -3.54023 1.68199e-06
489 1 26.3409 7.07558 -1.79565 -3.54023 1.10587e-06
490 1 25.9884 8.84702 0.0118475 -3.54021 1.40012e-06
491 1 25.6362 10.6182 1.81935 -3.54019 3.35054e-06
492 1 28.1148 7.42847 -3.60315 -3.54022 9.02051e-07
493 1 27.7623 9.2 -1.79565 -3.5402 1.83952e-06
494 1 27.4099 10.9715 0.0118476 -3.54019 3.72507e-06
495 1 27.0574 12.743 1.81935 -3.54019 5.75124e-06
496 1 29.5358 9.55345 -3.60315 -3.5402 2.28075e-06
497 1 29.183 11.3252 -1.79565 -3.5402 3.6032e-06
498 1 28.8301 13.0971 0.0118478 -3.5402 4.44303e-06
499 1 28.4769 14.8691 1.81935 -3.5402 4.56976e-06
500 1 30.9558 11.6793 -3.60315 -3.5402 3.05136e-06
501 1 30.6025 13.4514 -1.79565 -3.5402 3.09627e-06
502 1 30.2488 15.2238 0.0118479 -3.5402 2.84235e-06
503 1 29.8948 16.9963 1.81935 -3.5402 2.48431e-06
504 1 32.3745 13.806 -3.60315 -3.5402 1.90694e-06
505 1 32.0206 15.5785 -1.79565 -3.54021 1.72786e-06
506 1 31.6662 17.3512 0.0118481 -3.54021 1.52351e-06
507 1 33.7922 15.9334 -3.60315 -3.54021 1.20411e-06
508 1 33.4376 17.7062 -1.79565 -3.54022 1.0127e-06
509 1 35.209 18.0612 -3.60315 -3.54023 6.17676e-07
510 1 11.0959 -18.1143 0.0118453 -3.53953 0.000340712
511 1 10.7559 -16.3472 1.81934 -3.53949 0.000759456
512 1 12.8763 -17.7607 -1.79565 -3.53974 0.000275863
513 1 12.5308 -15.9914 0.0118454 -3.53991 0.000289684
514 1 12.1831 -14.2185 1.81935 -3.54027 0.000157585
515 1 14.6529 -17.4045 -3.60315 -3.53997 0.000141052
516 1 14.3037 -15.6341 -1.79565 -3.54013 9.85234e-05
517 1 13.9532 -13.8614 0.0118456 -3.54028 5.62743e-05
518 1 13.6021 -12.0867 1.81935 -3.54032 4.75272e-05
519 1 16.0759 -15.2765 -3.60315 -3.5402 3.87717e-05
520 1 15.7238 -13.504 -1.79565 -3.54024 2.93275e-05
521 1 15.3712 -11.73 0.0118457 -3.54023 3.22609e-05
522 1 15.0182 -9.95445 1.81935 -3.54022 3.48928e-05
523 1 17.4944 -13.1464 -3.60315 -3.54021 1.78127e-05
524 1 17.1406 -11.3727 -1.79565 -3.54021 1.98015e-05
525 1 16.7862 -9.59766 0.0118459 -3.54023 2.01312e-05
526 1 16.4312 -7.82148 1.81935 -3.54025 1.67447e-05
527 1 18.9101 -11.0152 -3.60315 -3.54021 1.03582e-05
528 1 18.5548 -9.24061 -1.79565 -3.54023 1.05423e-05
529 1 18.1991 -7.46513 0.011846 -3.54025 1.05193e-05
530 1 17.8429 -5.68892 1.81935 -3.54024 9.57303e-06
531 1 20.324 -8.88361 -3.60315 -3.54023 5.43015e-06
532 1 19.9677 -7.10872 -1.79565 -3.54024 6.64389e-06
533 1 19.6113 -5.33324 0.0118467 -3.54024 7.85739e-06
534 1 19.2545 -3.55731 1.81935 -3.54024 9.74164e-06
535 1 21.7371 -6.75243 -3.60315 -3.54023 4.63365e-06
536 1 21.3805 -4.9776 -1.79565 -3.54024 7.18052e-06
537 1 21.0238 -3.20247 0.0118469 -3.54026 1.11682e-05
538 1 20.6672 -1.42728 1.81935 -3.54028 1.67413e-05
539 1 23.1506 -4.62219 -3.60315 -3.54025 7.03253e-06
540 1 22.7942 -2.84783 -1.79565 -3.54027 1.08766e-05
541 1 22.438 -1.07352 0.011847 -3.54027 1.39771e-05
542 1 22.0823 0.700514 1.81935 -3.54027 1.40867e-05
543 1 24.5655 -2.49339 -3.60315 -3.54026 8.967e-06
544 1 24.2098 -0.719836 -1.79565 -3.54026 9.93676e-06
545 1 23.8547 1.05348 0.0118472 -3.54025 8.88091e-06
546 1 23.5002 2.82646 1.81935 -3.54024 6.77138e-06
547 1 25.9823 -0.366181 -3.60315 -3.54025 6.53346e-06
548 1 25.6276 1.40658 -1.79565 -3.54024 5.54573e-06
549 1 25.2735 3.17909 0.0118474 -3.54024 4.26481e-06
550 1 24.9199 4.9513 1.81935 -3.54024 3.13791e-06
551 1 27.4009 1.75982 -3.60315 -3.54024 3.31706e-06
552 1 27.0471 3.53196 -1.79565 -3.54024 2.48091e-06
553 1 26.6938 5.3039 0.0118476 -3.54023 1.68199e-06
554 1 26.3409 7.07558 1.81935 -3.54023 1.10587e-06
555 1 28.8208 3.88509 -3.60315 -3.54023 1.28127e-06
556 1 28.4676 5.65685 -1.79565 -3.54022 8.84334e-07
557 1 28.1148 7.42847 0.0118477 -3.54022 9.02051e-07
558 1 27.7623 9.2 1.81935 -3.5402 1.83952e-06
559 1 30.2413 6.01015 -3.60315 -3.54022 6.3415e-07
560 1 29.8885 7.78179 -1.79565 -3.54021 1.13331e-06
561 1 29.5358 9.55345 0.0118479 -3.5402 2.28075e-06
562 1 29.183 11.3252 1.81935 -3.5402 3.6032e-06
563 1 31.6619 8.13549 -3.60315 -3.54021 1.45343e-06
564 1 31.3089 9.9073 -1.79565 -3.54021 2.45617e-06
565 1 30.9558 11.6793 0.011848 -3.5402 3.05136e-06
566 1 30.6025 13.4514 1.81935 -3.5402 3.09627e-06
567 1 33.0816 10.2615 -3.60315 -3.54021 2.2782e-06
568 1 32.7282 12.0336 -1.79565 -3.54021 2.17122e-06
569 1 32.3745 13.806 0.0118481 -3.5402 1.90694e-06
570 1 32.0206 15.5785 1.81935 -3.54021 1.72786e-06
571 1 34.5003 12.3882 -3.60315 -3.5402 1.16657e-06
572 1 34.1464 14.1607 -1.79565 -3.5402 1.11311e-06
573 1 33.7922 15.9334 0.0118482 -3.54021 1.20411e-06
574 1 33.4376 17.7062 1.81935 -3.54022 1.0127e-06
575 1 35.9182 14.5155 -3.60315 -3.54021 9.41827e-07
576 1 35.5638 16.2882 -1.79565 -3.54022 1.12058e-06
577 1 35.209 18.0612 0.0118482 -3.54023 6.17676e-07
578 1 37.3353 16.6431 -3.60315 -3.54024 1.08698e-06