ITEM: TIMESTEP
0
ITEM: NUMBER OF ATOMS
2504
ITEM: BOX BOUNDS xy xz yz mm pp pp
-5.5498871899999997e+01 5.5498871899999997e+01 0.0000000000000000e+00
-1.8432957300000002e+01 1.8432957300000002e+01 0.0000000000000000e+00
-3.6150000000000002e+00 3.6150000000000002e+00 0.0000000000000000e+00
ITEM: ATOMS id type x y z c_eng c_csym
1 1 0.636091 16.7317 -3.60908 -3.44337 3.65546
2 1 0.286989 -18.3226 -1.80158 -3.28646 9.15139
3 1 1.00998 13.0235 -3.60908 -3.48764 0.397005
4 1 0.878341 14.7737 -1.80158 -3.50376 0.591135
5 1 0.636091 16.7317 0.00592019 -3.44337 3.65546
6 1 0.286989 -18.3226 1.81342 -3.28646 9.15139
7 1 2.59912 15.1666 -3.60908 -3.54186 0.121477
8 1 2.29339 16.9975 -1.80158 -3.52264 0.0764242
9 1 3.98588 17.3675 -3.60908 -3.5459 0.0286319
10 1 0.584753 7.45615 -3.60908 -3.49074 2.28804
11 1 0.234359 9.24035 -1.80158 -3.30873 6.3399
12 1 1.86149 9.63757 -3.60908 -3.47771 0.450262
13 1 1.36871 11.3934 -1.80158 -3.46663 0.508541
14 1 1.00998 13.0235 0.00592045 -3.48764 0.397005
15 1 0.878341 14.7737 1.81342 -3.50376 0.591135
16 1 3.24066 11.7098 -3.60908 -3.52063 0.051873
17 1 2.93046 13.4117 -1.80158 -3.51113 0.0808371
18 1 2.59912 15.1666 0.00592056 -3.54186 0.121477
19 1 2.29339 16.9975 1.81342 -3.52264 0.0764242
20 1 4.7197 13.7917 -3.60908 -3.53266 0.0152513
21 1 4.36094 15.5596 -1.80158 -3.5382 0.0108859
22 1 3.98588 17.3675 0.00592069 -3.5459 0.0286319
23 1 6.11557 15.9384 -3.60908 -3.54078 0.00232355
24 1 5.7445 17.719 -1.80158 -3.54471 0.0113603
25 1 7.52999 18.064 -3.60908 -3.54109 0.0019768
26 1 1.05967 3.78661 -3.60908 -3.50447 0.300721
27 1 0.868084 5.54699 -1.80158 -3.52444 0.307184
28 1 0.584753 7.45615 0.00592019 -3.49074 2.28802
29 1 0.234359 9.24035 1.81342 -3.30896 6.3399
30 1 2.59756 5.94246 -3.60908 -3.54223 0.0750541
31 1 2.27218 7.75742 -1.80158 -3.52395 0.0514898
32 1 1.86149 9.63757 0.0059206 -3.47771 0.450262
33 1 1.36871 11.3934 1.81342 -3.46663 0.508541
34 1 3.97433 8.14058 -3.60908 -3.54546 0.021033
35 1 3.59241 9.94518 -1.80158 -3.54327 0.0495184
36 1 3.24066 11.7098 0.00592073 -3.52063 0.051873
37 1 2.93046 13.4117 1.81342 -3.51113 0.0808371
38 1 5.38062 10.2711 -3.60908 -3.54277 0.00586266
39 1 5.05531 12.0305 -1.80158 -3.53461 0.00856633
40 1 4.7197 13.7917 0.00592108 -3.53266 0.0152513
41 1 4.36094 15.5596 1.81342 -3.5382 0.0108859
42 1 6.83472 12.3813 -3.60908 -3.53841 0.00318902
43 1 6.48425 14.1566 -1.80158 -3.53822 0.0019196
44 1 6.11557 15.9384 0.00592113 -3.54078 0.00232355
45 1 5.7445 17.719 1.81342 -3.54471 0.0113603
46 1 8.24658 14.5175 -3.60908 -3.54077 0.000385888
47 1 7.8845 16.2943 -1.80158 -3.54138 0.00210454
48 1 7.52999 18.064 0.00592127 -3.54109 0.0019768
49 1 9.66356 16.6435 -3.60908 -3.54074 0.000556672
50 1 9.31717 18.4101 -1.80158 -3.53963 0.000221143
51 1 0.59175 -1.76795 -3.60908 -3.49583 2.14861
52 1 0.245139 0.00896118 -1.80158 -3.31808 5.89208
53 1 1.90469 0.389999 -3.60908 -3.48997 0.38123
54 1 1.43479 2.14061 -1.80158 -3.47612 0.408767
55 1 1.05967 3.78661 0.00592045 -3.50447 0.300708
56 1 0.868084 5.54699 1.81342 -3.52419 0.307184
57 1 3.28116 2.47718 -3.60908 -3.52408 0.0378761
58 1 2.94813 4.19025 -1.80158 -3.51933 0.0504752
59 1 2.59756 5.94246 0.00592056 -3.54223 0.0750541
60 1 2.27218 7.75742 1.81342 -3.52399 0.0514898
61 1 4.73046 4.57528 -3.60908 -3.53383 0.0104647
62 1 4.36064 6.34138 -1.80158 -3.53812 0.00706486
63 1 3.97433 8.14058 0.00592069 -3.54546 0.021033
64 1 3.59241 9.94518 1.81342 -3.54327 0.0495184
65 1 6.11547 6.72471 -3.60908 -3.54069 0.00231039
66 1 5.73609 8.50125 -1.80158 -3.54409 0.00948731
67 1 5.38062 10.2711 0.00592113 -3.54277 0.00586266
68 1 5.05531 12.0305 1.81342 -3.53461 0.00856633
69 1 7.52146 8.85312 -3.60908 -3.54077 0.00159863
70 1 7.17497 10.6146 -1.80158 -3.5392 0.00112571
71 1 6.83472 12.3813 0.00592126 -3.53841 0.00318902
72 1 6.48425 14.1566 1.81342 -3.53822 0.0019196
73 1 8.9572 10.97 -3.60908 -3.53912 0.000687708
74 1 8.60516 12.7406 -1.80158 -3.53977 0.000572259
75 1 8.24658 14.5175 0.00592132 -3.54077 0.000385888
76 1 7.8845 16.2943 1.81342 -3.54138 0.00210454
77 1 10.3755 13.0997 -3.60908 -3.54049 7.78134e-05
78 1 10.0176 14.8728 -1.80158 -3.54107 0.000492184
79 1 9.66356 16.6435 0.00592145 -3.54074 0.000556672
80 1 9.31717 18.4101 1.81342 -3.53963 0.000221143
81 1 11.7948 15.2255 -3.60908 -3.54059 0.000165584
82 1 11.4447 16.9936 -1.80158 -3.54012 6.33646e-05
83 1 13.2235 17.3463 -3.60908 -3.53996 6.06459e-05
84 1 1.0783 -5.41484 -3.60908 -3.49953 0.323242
85 1 0.87681 -3.66907 -1.80158 -3.52786 0.307057
86 1 0.59175 -1.76795 0.00592019 -3.49583 2.1486
87 1 0.245139 0.00896118 1.81342 -3.31826 5.89208
88 1 2.61865 -3.26538 -3.60908 -3.54383 0.0697831
89 1 2.29407 -1.46728 -1.80158 -3.52939 0.0444673
90 1 1.90469 0.389999 0.0059206 -3.48997 0.381223
91 1 1.43479 2.14061 1.81342 -3.47643 0.408767
92 1 4.01385 -1.08355 -3.60908 -3.54606 0.0133431
93 1 3.63893 0.71032 -1.80158 -3.54271 0.0259795
94 1 3.28116 2.47718 0.00592073 -3.52408 0.0378761
95 1 2.94813 4.19025 1.81342 -3.51937 0.0504752
96 1 5.41824 1.05055 -3.60908 -3.54262 0.00274703
97 1 5.07971 2.81224 -1.80158 -3.53608 0.00542407
98 1 4.73046 4.57528 0.00592108 -3.53383 0.0104647
99 1 4.36064 6.34138 1.81342 -3.53812 0.00706486
100 1 6.85249 3.17045 -3.60908 -3.53897 0.00197506
101 1 6.49227 4.94519 -1.80158 -3.53857 0.00141381
102 1 6.11547 6.72471 0.00592113 -3.54069 0.00231039
103 1 5.73609 8.50125 1.81342 -3.54409 0.00948731
104 1 8.25284 5.31003 -3.60908 -3.54076 0.000459925
105 1 7.88358 7.08536 -1.80158 -3.54126 0.00206797
106 1 7.52146 8.85312 0.00592127 -3.54077 0.00159863
107 1 7.17497 10.6146 1.81342 -3.5392 0.00112571
108 1 9.66097 7.43847 -3.60908 -3.54062 0.000524794
109 1 9.30703 9.20451 -1.80158 -3.53953 0.000162015
110 1 8.9572 10.97 0.0059214 -3.53912 0.000687708
111 1 8.60516 12.7406 1.81342 -3.53977 0.000572259
112 1 11.0864 9.55883 -3.60908 -3.53962 0.000115072
113 1 10.7324 11.3279 -1.80158 -3.53976 0.000131794
114 1 10.3755 13.0997 0.00592151 -3.54049 7.78134e-05
115 1 10.0176 14.8728 1.81342 -3.54107 0.000492184
116 1 12.5059 11.6848 -3.60908 -3.54023 1.22386e-05
117 1 12.1494 13.4556 -1.80158 -3.54057 0.000110203
118 1 11.7948 15.2255 0.00592192 -3.54059 0.000165584
119 1 11.4447 16.9936 1.81342 -3.54012 6.33646e-05
120 1 13.9257 13.8095 -3.60908 -3.54038 4.79809e-05
121 1 13.5734 15.5781 -1.80158 -3.5402 2.23773e-05
122 1 13.2235 17.3463 0.00592211 -3.53996 6.06459e-05
123 1 15.3508 15.9317 -3.60908 -3.54008 1.77199e-05
124 1 14.9997 17.7009 -1.80158 -3.54002 4.70063e-05
125 1 16.7741 18.0563 -3.60908 -3.54012 2.10334e-05
126 1 0.664005 -10.9271 -3.60908 -3.45241 3.39401
127 1 0.33643 -9.13463 -1.80158 -3.29612 8.75097
128 1 1.96505 -8.78094 -3.60908 -3.47431 0.533401
129 1 1.48123 -7.0292 -1.80158 -3.45462 0.549933
130 1 1.0783 -5.41484 0.00592045 -3.49953 0.323229
131 1 0.87681 -3.66907 1.81342 -3.52762 0.307057
132 1 3.32223 -6.70616 -3.60908 -3.52231 0.0645299
133 1 2.97969 -4.99866 -1.80158 -3.51657 0.0537616
134 1 2.61865 -3.26538 0.00592056 -3.54383 0.0697831
135 1 2.29407 -1.46728 1.81342 -3.52944 0.0444673
136 1 4.76543 -4.6222 -3.60908 -3.53313 0.0135635
137 1 4.39533 -2.86547 -1.80158 -3.53783 0.0051769
138 1 4.01385 -1.08355 0.00592094 -3.54606 0.0133431
139 1 3.63893 0.71032 1.81342 -3.54272 0.0259795
140 1 6.15598 -2.48709 -3.60908 -3.53965 0.00174918
141 1 5.77876 -0.716368 -1.80158 -3.54304 0.00399525
142 1 5.41824 1.05055 0.00592113 -3.54262 0.00274703
143 1 5.07971 2.81224 1.81342 -3.53608 0.00542407
144 1 7.5578 -0.36015 -3.60908 -3.54035 0.000755655
145 1 7.20351 1.40304 -1.80158 -3.53948 0.000605383
146 1 6.85249 3.17045 0.00592126 -3.53897 0.00197506
147 1 6.49227 4.94519 1.81342 -3.53857 0.00141381
148 1 8.9787 1.7618 -3.60908 -3.53925 0.000463103
149 1 8.61895 3.53363 -1.80158 -3.53986 0.000319551
150 1 8.25284 5.31003 0.00592132 -3.54076 0.000459925
151 1 7.88358 7.08536 1.81342 -3.54126 0.00206797
152 1 10.3856 3.89431 -3.60908 -3.5404 0.000111831
153 1 10.0217 5.66797 -1.80158 -3.54094 0.000515755
154 1 9.66097 7.43847 0.00592145 -3.54062 0.000524794
155 1 9.30703 9.20451 1.81342 -3.53953 0.000162015
156 1 11.796 6.02206 -3.60908 -3.54048 0.000184996
157 1 11.4399 7.79101 -1.80158 -3.54005 5.09664e-05
158 1 11.0864 9.55883 0.00592184 -3.53962 0.000115072
159 1 10.7324 11.3279 1.81342 -3.53976 0.000131794
160 1 13.2166 8.14464 -3.60908 -3.53995 2.0424e-05
161 1 12.8618 9.9143 -1.80158 -3.53995 2.77802e-05
162 1 12.5059 11.6848 0.005922 -3.54023 1.22386e-05
163 1 12.1494 13.4556 1.81342 -3.54057 0.000110203
164 1 14.636 10.2693 -3.60908 -3.54019 5.26586e-06
165 1 14.2804 12.0398 -1.80158 -3.54035 2.81477e-05
166 1 13.9257 13.8095 0.00592216 -3.54038 4.79809e-05
167 1 13.5734 15.5781 1.81342 -3.5402 2.23773e-05
168 1 16.0559 12.3935 -3.60908 -3.54029 1.6618e-05
169 1 15.7026 14.1629 -1.80158 -3.54021 9.51402e-06
170 1 15.3508 15.9317 0.00592241 -3.54008 1.77199e-05
171 1 14.9997 17.7009 1.81342 -3.54002 4.70063e-05
172 1 17.4786 14.5166 -3.60908 -3.54014 7.2648e-06
173 1 17.1264 16.2862 -1.80158 -3.54009 1.80427e-05
174 1 16.7741 18.0563 0.00592266 -3.54012 2.10334e-05
175 1 18.9007 16.641 -3.60908 -3.54014 1.12237e-05
176 1 18.5475 18.4118 -1.80158 -3.54018 8.30733e-06
177 1 1.02024 -14.6058 -3.60908 -3.48009 0.482282
178 1 0.897173 -12.8617 -1.80158 -3.51178 0.543606
179 1 0.664005 -10.9271 0.00592019 -3.45241 3.39401
180 1 0.33643 -9.13463 1.81342 -3.29607 8.75097
181 1 2.63227 -12.4815 -3.60908 -3.54308 0.123532
182 1 2.3394 -10.6659 -1.80158 -3.52734 0.0740091
183 1 1.96505 -8.78094 0.0059206 -3.47431 0.533394
184 1 1.48123 -7.0292 1.81342 -3.45493 0.549933
185 1 4.04118 -10.2971 -3.60908 -3.54651 0.0205904
186 1 3.67742 -8.48553 -1.80158 -3.54303 0.0322033
187 1 3.32223 -6.70616 0.00592073 -3.52231 0.0645299
188 1 2.97969 -4.99866 1.81342 -3.51661 0.0537616
189 1 5.44445 -8.15978 -3.60908 -3.54391 0.00401606
190 1 5.11229 -6.38794 -1.80158 -3.53677 0.0060855
191 1 4.76543 -4.6222 0.00592108 -3.53313 0.0135635
192 1 4.39533 -2.86547 1.81342 -3.53783 0.0051769
193 1 6.87989 -6.04242 -3.60908 -3.53945 0.00165024
194 1 6.52684 -4.26424 -1.80158 -3.5384 0.00201975
195 1 6.15598 -2.48709 0.00592113 -3.53965 0.00174918
196 1 5.77876 -0.716368 1.81342 -3.54304 0.00399525
197 1 8.28497 -3.90771 -3.60908 -3.54056 0.000226932
198 1 7.92082 -2.12983 -1.80158 -3.54067 0.0010843
199 1 7.5578 -0.36015 0.00592127 -3.54035 0.000755655
200 1 7.20351 1.40304 1.81342 -3.53948 0.000605383
201 1 9.69075 -1.77825 -3.60908 -3.54051 0.000215318
202 1 9.33465 -0.0072381 -1.80158 -3.53958 0.000184662
203 1 8.9787 1.7618 0.0059214 -3.53925 0.000463103
204 1 8.61895 3.53363 1.81342 -3.53986 0.000319551
205 1 11.1062 0.346984 -3.60908 -3.53974 0.000103924
206 1 10.7479 2.12026 -1.80158 -3.53978 0.000110007
207 1 10.3856 3.89431 0.00592176 -3.5404 0.000111831
208 1 10.0217 5.66797 1.81342 -3.54094 0.000515755
209 1 12.5161 2.47664 -3.60908 -3.54023 4.28446e-05
210 1 12.1556 4.25047 -1.80158 -3.54048 0.000157308
211 1 11.796 6.02206 0.00592192 -3.54048 0.000184996
212 1 11.4399 7.79101 1.81342 -3.54005 5.09664e-05
213 1 13.928 4.60395 -3.60908 -3.54035 7.55231e-05
214 1 13.5715 6.37498 -1.80158 -3.54016 3.36871e-05
215 1 13.2166 8.14464 0.00592211 -3.53995 2.0424e-05
216 1 12.8618 9.9143 1.81342 -3.53995 2.77802e-05
217 1 15.3463 6.72794 -3.60908 -3.54009 8.60428e-06
218 1 14.9913 8.49866 -1.80158 -3.54006 7.89605e-06
219 1 14.636 10.2693 0.0059223 -3.54019 5.26586e-06
220 1 14.2804 12.0398 1.81342 -3.54035 2.81477e-05
221 1 16.7652 8.85239 -3.60908 -3.54018 4.19011e-06
222 1 16.4103 10.6233 -1.80158 -3.54026 1.04977e-05
223 1 16.0559 12.3935 0.0059225 -3.54029 1.6618e-05
224 1 15.7026 14.1629 1.81342 -3.54021 9.51402e-06
225 1 18.1849 10.9766 -3.60908 -3.54025 7.16353e-06
226 1 17.8314 12.7469 -1.80158 -3.54021 5.41151e-06
227 1 17.4786 14.5166 0.00592276 -3.54014 7.2648e-06
228 1 17.1264 16.2862 1.81342 -3.54009 1.80427e-05
229 1 19.6063 13.1003 -3.60908 -3.54017 3.88185e-06
230 1 19.2535 14.8706 -1.80158 -3.54014 8.30273e-06
231 1 18.9007 16.641 0.00592305 -3.54014 1.12237e-05
232 1 18.5475 18.4118 1.81342 -3.54018 8.30733e-06
233 1 21.0274 15.2249 -3.60908 -3.54016 6.33602e-06
234 1 20.6741 16.996 -1.80158 -3.54018 6.07943e-06
235 1 22.4469 17.3509 -3.60908 -3.54019 3.54536e-06
236 1 1.8983 -17.9639 -3.60908 -3.45726 0.668835
237 1 1.39042 -16.2054 -1.80158 -3.43385 0.723058
238 1 1.02024 -14.6058 0.00592045 -3.48009 0.482282
239 1 0.897173 -12.8617 1.81342 -3.51178 0.543606
240 1 3.27009 -15.9092 -3.60908 -3.5176 0.0776203
241 1 2.9604 -14.2165 -1.80158 -3.50854 0.0843832
242 1 2.63227 -12.4815 0.00592056 -3.54308 0.123532
243 1 2.3394 -10.6659 1.81342 -3.52735 0.0740091
244 1 4.75823 -13.8489 -3.60908 -3.53157 0.0189066
245 1 4.4073 -12.0914 -1.80158 -3.53752 0.0112473
246 1 4.04118 -10.2971 0.00592094 -3.54651 0.0205904
247 1 3.67742 -8.48553 1.81342 -3.54304 0.0322033
248 1 6.16487 -11.7156 -3.60908 -3.5398 0.00104375
249 1 5.79665 -9.93771 -1.80158 -3.54397 0.0048268
250 1 5.44445 -8.15978 0.00592113 -3.54391 0.00401606
251 1 5.11229 -6.38794 1.81342 -3.53677 0.0060855
252 1 7.57098 -9.58569 -3.60908 -3.54084 0.000635069
253 1 7.2235 -7.81629 -1.80158 -3.54019 0.000651639
254 1 6.87989 -6.04242 0.00592126 -3.53945 0.00165024
255 1 6.52684 -4.26424 1.81342 -3.5384 0.00201975
256 1 8.996 -7.46309 -3.60908 -3.53955 0.000378319
257 1 8.64351 -5.68749 -1.80158 -3.54005 0.000372837
258 1 8.28497 -3.90771 0.00592132 -3.54056 0.000226932
259 1 7.92082 -2.12983 1.81342 -3.54067 0.0010843
260 1 10.4076 -5.331 -3.60908 -3.54039 3.89686e-05
261 1 10.049 -3.55358 -1.80158 -3.54083 0.00015601
262 1 9.69075 -1.77825 0.00592145 -3.54051 0.000215318
263 1 9.33465 -0.0072381 1.81342 -3.53958 0.000184662
264 1 11.8175 -3.20043 -3.60908 -3.54048 3.95831e-05
265 1 11.4618 -1.42623 -1.80158 -3.54015 1.59845e-05
266 1 11.1062 0.346984 0.00592184 -3.53974 0.000103924
267 1 10.7479 2.12026 1.81342 -3.53978 0.000110007
268 1 13.2318 -1.07264 -3.60908 -3.54007 1.14256e-05
269 1 12.8751 0.701933 -1.80158 -3.54005 2.23278e-05
270 1 12.5161 2.47664 0.005922 -3.54023 4.28446e-05
271 1 12.1556 4.25047 1.81342 -3.54048 0.000157308
272 1 14.644 1.05652 -3.60908 -3.54025 1.15144e-05
273 1 14.2859 2.83094 -1.80158 -3.54036 5.11913e-05
274 1 13.928 4.60395 0.00592216 -3.54035 7.55231e-05
275 1 13.5715 6.37498 1.81342 -3.54016 3.36871e-05
276 1 16.0574 3.18407 -3.60908 -3.54032 2.9129e-05
277 1 15.7014 4.95659 -1.80158 -3.54022 1.95163e-05
278 1 15.3463 6.72794 0.00592241 -3.54009 8.60428e-06
279 1 14.9913 8.49866 1.81342 -3.54006 7.89605e-06
280 1 17.4748 5.30927 -3.60908 -3.54018 4.51795e-06
281 1 17.1201 7.08105 -1.80158 -3.54014 3.33422e-06
282 1 16.7652 8.85239 0.00592266 -3.54018 4.19011e-06
283 1 16.4103 10.6233 1.81342 -3.54026 1.04977e-05
284 1 18.8935 7.43413 -3.60908 -3.5402 2.22157e-06
285 1 18.5391 9.20568 -1.80158 -3.54023 4.80546e-06
286 1 18.1849 10.9766 0.00592291 -3.54025 7.16353e-06
287 1 17.8314 12.7469 1.81342 -3.54021 5.41151e-06
288 1 20.313 9.55873 -3.60908 -3.54024 2.99691e-06
289 1 19.9594 11.3298 -1.80158 -3.54022 2.92145e-06
290 1 19.6063 13.1003 0.00592343 -3.54017 3.88185e-06
291 1 19.2535 14.8706 1.81342 -3.54014 8.30273e-06
292 1 21.7336 11.683 -3.60908 -3.5402 1.88205e-06
293 1 21.3805 13.454 -1.80158 -3.54017 4.11942e-06
294 1 21.0274 15.2249 0.0059237 -3.54016 6.33602e-06
295 1 20.6741 16.996 1.81342 -3.54018 6.07943e-06
296 1 23.154 13.808 -3.60908 -3.54018 3.44553e-06
297 1 22.8006 15.5794 -1.80158 -3.54018 4.07054e-06
298 1 22.4469 17.3509 0.00592392 -3.54019 3.54536e-06
299 1 24.5733 15.934 -3.60908 -3.5402 2.55828e-06
300 1 24.2194 17.7059 -1.80158 -3.5402 2.26405e-06
301 1 25.9915 18.0608 -3.60908 -3.5402 1.45898e-06
302 1 1.8983 -17.9639 0.0059206 -3.45726 0.668835
303 1 1.39042 -16.2054 1.81342 -3.43385 0.723058
304 1 3.61557 -17.682 -1.80158 -3.54322 0.0587036
305 1 3.27009 -15.9092 0.00592073 -3.5176 0.0776203
306 1 2.9604 -14.2165 1.81342 -3.50854 0.0843832
307 1 5.39855 -17.3713 -3.60908 -3.54375 0.00792927
308 1 5.08387 -15.6079 -1.80158 -3.53498 0.00924438
309 1 4.75823 -13.8489 0.00592108 -3.53157 0.0189066
310 1 4.4073 -12.0914 1.81342 -3.53752 0.0112473
311 1 6.86373 -15.2702 -3.60908 -3.53861 0.0037952
312 1 6.52469 -13.4948 -1.80158 -3.53779 0.00337724
313 1 6.16487 -11.7156 0.00592113 -3.5398 0.00104375
314 1 5.79665 -9.93771 1.81342 -3.54397 0.0048268
315 1 8.28449 -13.1394 -3.60908 -3.54042 0.000250908
316 1 7.92758 -11.3597 -1.80158 -3.54082 0.00064509
317 1 7.57098 -9.58569 0.00592127 -3.54084 0.000635069
318 1 7.2235 -7.81629 1.81342 -3.54019 0.000651639
319 1 9.69655 -11.0089 -3.60908 -3.54065 0.000132684
320 1 9.3458 -9.23548 -1.80158 -3.5398 6.55604e-05
321 1 8.996 -7.46309 0.0059214 -3.53955 0.000378319
322 1 8.64351 -5.68749 1.81342 -3.54005 0.000372837
323 1 11.1167 -8.88283 -3.60908 -3.53984 8.24422e-05
324 1 10.7639 -7.10772 -1.80158 -3.53986 0.000107019
325 1 10.4076 -5.331 0.00592176 -3.54039 3.89686e-05
326 1 10.049 -3.55358 1.81342 -3.54083 0.00015601
327 1 12.5308 -6.75233 -3.60908 -3.5402 1.38165e-05
328 1 12.1743 -4.97602 -1.80158 -3.54043 2.75281e-05
329 1 11.8175 -3.20043 0.00592192 -3.54048 3.95831e-05
330 1 11.4618 -1.42623 1.81342 -3.54015 1.59845e-05
331 1 13.9429 -4.62194 -3.60908 -3.54033 1.01084e-05
332 1 13.5873 -2.84708 -1.80158 -3.54022 1.80014e-06
333 1 13.2318 -1.07264 0.00592211 -3.54007 1.14256e-05
334 1 12.8751 0.701933 1.81342 -3.54005 2.23278e-05
335 1 15.3571 -2.49312 -3.60908 -3.54016 1.34196e-06
336 1 15.0011 -0.718354 -1.80158 -3.54015 3.35576e-06
337 1 14.644 1.05652 0.0059223 -3.54025 1.15144e-05
338 1 14.2859 2.83094 1.81342 -3.54036 5.11913e-05
339 1 16.7707 -0.364123 -3.60908 -3.54024 4.74321e-06
340 1 16.4141 1.41034 -1.80158 -3.54031 1.77024e-05
341 1 16.0574 3.18407 0.0059225 -3.54032 2.9129e-05
342 1 15.7014 4.95659 1.81342 -3.54022 1.95163e-05
343 1 18.1853 1.76367 -3.60908 -3.54029 1.26376e-05
344 1 17.8298 3.53686 -1.80158 -3.54025 1.01098e-05
345 1 17.4748 5.30927 0.00592276 -3.54018 4.51795e-06
346 1 17.1201 7.08105 1.81342 -3.54014 3.33422e-06
347 1 19.6024 3.88973 -3.60908 -3.54022 3.21443e-06
348 1 19.2479 5.66214 -1.80158 -3.54019 1.65782e-06
349 1 18.8935 7.43413 0.00592331 -3.5402 2.22157e-06
350 1 18.5391 9.20568 1.81342 -3.54023 4.80546e-06
351 1 21.021 6.01514 -3.60908 -3.54022 1.25052e-06
352 1 20.6669 7.78716 -1.80158 -3.54023 2.03034e-06
353 1 20.313 9.55873 0.00592358 -3.54024 2.99691e-06
354 1 19.9594 11.3298 1.81342 -3.54022 2.92145e-06
355 1 22.4403 8.14021 -3.60908 -3.54023 1.18687e-06
356 1 22.0868 9.91181 -1.80158 -3.54022 1.22659e-06
357 1 21.7336 11.683 0.00592384 -3.5402 1.88205e-06
358 1 21.3805 13.454 1.81342 -3.54017 4.11942e-06
359 1 23.8604 10.2651 -3.60908 -3.54021 7.81095e-07
360 1 23.5072 12.0366 -1.80158 -3.54019 1.93088e-06
361 1 23.154 13.808 0.00592406 -3.54018 3.44553e-06
362 1 22.8006 15.5794 1.81342 -3.54018 4.07054e-06
363 1 25.2804 12.3904 -3.60908 -3.5402 1.79806e-06
364 1 24.927 14.1622 -1.80158 -3.54019 2.47194e-06
365 1 24.5733 15.934 0.00592427 -3.5402 2.55828e-06
366 1 24.2194 17.7059 1.81342 -3.5402 2.26405e-06
367 1 26.6996 14.5165 -3.60908 -3.5402 1.67762e-06
368 1 26.3457 16.2886 -1.80158 -3.5402 1.62138e-06
369 1 25.9915 18.0608 0.00592454 -3.5402 1.45898e-06
370 1 28.1178 16.6433 -3.60908 -3.54021 1.00485e-06
371 1 27.7635 18.4157 -1.80158 -3.54021 8.97026e-07
372 1 3.61557 -17.682 1.81342 -3.54322 0.0587036
373 1 5.39855 -17.3713 0.00592113 -3.54375 0.00792927
374 1 5.08387 -15.6079 1.81342 -3.53498 0.00924438
375 1 7.19276 -17.0384 -1.80158 -3.53966 0.00150761
376 1 6.86373 -15.2702 0.00592126 -3.53861 0.0037952
377 1 6.52469 -13.4948 1.81342 -3.53779 0.00337724
378 1 8.97619 -16.6898 -3.60908 -3.53917 0.00102779
379 1 8.63397 -14.9182 -1.80158 -3.5397 0.0011897
380 1 8.28449 -13.1394 0.00592132 -3.54042 0.000250908
381 1 7.92758 -11.3597 1.81342 -3.54082 0.00064509
382 1 10.4021 -14.5619 -3.60908 -3.54031 0.000173978
383 1 10.0495 -12.7853 -1.80158 -3.54087 9.88922e-05
384 1 9.69655 -11.0089 0.00592145 -3.54065 0.000132684
385 1 9.3458 -9.23548 1.81342 -3.5398 6.55604e-05
386 1 11.8191 -12.4314 -3.60908 -3.54056 3.41342e-05
387 1 11.4676 -10.6571 -1.80158 -3.54026 1.54819e-05
388 1 11.1167 -8.88283 0.00592184 -3.53984 8.24422e-05
389 1 10.7639 -7.10772 1.81342 -3.53986 0.000107019
390 1 13.2382 -10.3031 -3.60908 -3.54013 2.9387e-05
391 1 12.8854 -8.52828 -1.80158 -3.54007 3.81388e-05
392 1 12.5308 -6.75233 0.005922 -3.5402 1.38165e-05
393 1 12.1743 -4.97602 1.81342 -3.54043 2.75281e-05
394 1 14.6539 -8.17295 -3.60908 -3.54023 1.08074e-05
395 1 14.2987 -6.3974 -1.80158 -3.54032 7.44404e-06
396 1 13.9429 -4.62194 0.00592216 -3.54033 1.01084e-05
397 1 13.5873 -2.84708 1.81342 -3.54022 1.80014e-06
398 1 16.0679 -6.04266 -3.60908 -3.54029 4.62674e-06
399 1 15.7125 -4.26783 -1.80158 -3.54024 1.7119e-06
400 1 15.3571 -2.49312 0.00592241 -3.54016 1.34196e-06
401 1 15.0011 -0.718354 1.81342 -3.54015 3.35576e-06
402 1 17.4825 -3.91338 -3.60908 -3.54021 1.43305e-06
403 1 17.1269 -2.1388 -1.80158 -3.54019 1.47038e-06
404 1 16.7707 -0.364123 0.00592266 -3.54024 4.74321e-06
405 1 16.4141 1.41034 1.81342 -3.54031 1.77024e-05
406 1 18.8971 -1.78444 -3.60908 -3.54024 3.21211e-06
407 1 18.5412 -0.0102007 -1.80158 -3.54027 7.9124e-06
408 1 18.1853 1.76367 0.00592291 -3.54029 1.26376e-05
409 1 17.8298 3.53686 1.81342 -3.54025 1.01098e-05
410 1 20.3125 0.343502 -3.60908 -3.54027 6.61681e-06
411 1 19.9573 2.11685 -1.80158 -3.54025 6.01692e-06
412 1 19.6024 3.88973 0.00592343 -3.54022 3.21443e-06
413 1 19.2479 5.66214 1.81342 -3.54019 1.65782e-06
414 1 21.7297 2.47011 -3.60908 -3.54023 2.73005e-06
415 1 21.3752 4.24278 -1.80158 -3.54022 1.49188e-06
416 1 21.021 6.01514 0.0059237 -3.54022 1.25052e-06
417 1 20.6669 7.78716 1.81342 -3.54023 2.03034e-06
418 1 23.1481 4.596 -3.60908 -3.54023 1.05445e-06
419 1 22.7941 6.36825 -1.80158 -3.54023 1.03466e-06
420 1 22.4403 8.14021 0.00592392 -3.54023 1.18687e-06
421 1 22.0868 9.91181 1.81342 -3.54022 1.22659e-06
422 1 24.5673 6.72151 -3.60908 -3.54023 6.05481e-07
423 1 24.2138 8.49343 -1.80158 -3.54022 4.9991e-07
424 1 23.8604 10.2651 0.00592417 -3.54021 7.81095e-07
425 1 23.5072 12.0366 1.81342 -3.54019 1.93088e-06
426 1 25.9871 8.84688 -3.60908 -3.54021 3.59434e-07
427 1 25.6337 10.6187 -1.80158 -3.5402 8.97779e-07
428 1 25.2804 12.3904 0.00592444 -3.5402 1.79806e-06
429 1 24.927 14.1622 1.81342 -3.54019 2.47194e-06
430 1 27.4067 10.9725 -3.60908 -3.54021 9.84178e-07
431 1 27.0532 12.7445 -1.80158 -3.5402 1.474e-06
432 1 26.6996 14.5165 0.00592468 -3.5402 1.67762e-06
433 1 26.3457 16.2886 1.81342 -3.5402 1.62138e-06
434 1 28.8258 13.0988 -3.60907 -3.54021 1.10856e-06
435 1 28.4719 14.871 -1.80158 -3.54021 1.09034e-06
436 1 28.1178 16.6433 0.00592493 -3.54021 1.00485e-06
437 1 27.7635 18.4157 1.81342 -3.54021 8.97026e-07
438 1 30.244 15.2255 -3.60907 -3.54021 6.60409e-07
439 1 29.8898 16.998 -1.80157 -3.54021 6.11567e-07
440 1 31.6617 17.3527 -3.60907 -3.54021 4.08872e-07
441 1 7.19276 -17.0384 1.81342 -3.53966 0.00150761
442 1 8.97619 -16.6898 0.0059214 -3.53917 0.00102779
443 1 8.63397 -14.9182 1.81342 -3.5397 0.0011897
444 1 11.0982 -18.1048 -3.60908 -3.5396 0.000230469
445 1 10.7517 -16.3353 -1.80158 -3.53965 0.000395113
446 1 10.4021 -14.5619 0.00592151 -3.54031 0.000173978
447 1 10.0495 -12.7853 1.81342 -3.54087 9.88922e-05
448 1 12.524 -15.9791 -3.60908 -3.5401 8.06931e-05
449 1 12.1717 -14.2058 -1.80158 -3.54044 2.5121e-05
450 1 11.8191 -12.4314 0.00592192 -3.54056 3.41342e-05
451 1 11.4676 -10.6571 1.81342 -3.54026 1.54819e-05
452 1 13.943 -13.8502 -3.60908 -3.54035 7.3171e-06
453 1 13.5904 -12.077 -1.80158 -3.54028 1.1244e-05
454 1 13.2382 -10.3031 0.00592211 -3.54013 2.9387e-05
455 1 12.8854 -8.52828 1.81342 -3.54007 3.81388e-05
456 1 15.3616 -11.7216 -3.60908 -3.54018 1.24905e-05
457 1 15.0082 -9.9478 -1.80158 -3.54016 1.84804e-05
458 1 14.6539 -8.17295 0.0059223 -3.54023 1.08074e-05
459 1 14.2987 -6.3974 1.81342 -3.54032 7.44404e-06
460 1 16.7781 -9.59197 -3.60908 -3.54022 6.96741e-06
461 1 16.4232 -7.8175 -1.80158 -3.54028 4.97555e-06
462 1 16.0679 -6.04266 0.0059225 -3.54029 4.62674e-06
463 1 15.7125 -4.26783 1.81342 -3.54024 1.7119e-06
464 1 18.1932 -7.4621 -3.60908 -3.54026 2.90713e-06
465 1 17.8379 -5.68782 -1.80158 -3.54025 2.38126e-06
466 1 17.4825 -3.91338 0.00592276 -3.54021 1.43305e-06
467 1 17.1269 -2.1388 1.81342 -3.54019 1.47038e-06
468 1 19.6083 -5.33283 -3.60908 -3.54022 1.6853e-06
469 1 19.2528 -3.55871 -1.80158 -3.54022 1.80618e-06
470 1 18.8971 -1.78444 0.00592331 -3.54024 3.21211e-06
471 1 18.5412 -0.0102007 1.81342 -3.54027 7.9124e-06
472 1 21.0236 -3.20403 -3.60908 -3.54024 2.46169e-06
473 1 20.668 -1.4302 -1.80158 -3.54026 4.52072e-06
474 1 20.3125 0.343502 0.00592358 -3.54027 6.61681e-06
475 1 19.9573 2.11685 1.81342 -3.54025 6.01692e-06
476 1 22.4395 -1.07607 -3.60908 -3.54025 3.96018e-06
477 1 22.0844 0.697148 -1.80158 -3.54025 4.00353e-06
478 1 21.7297 2.47011 0.00592384 -3.54023 2.73005e-06
479 1 21.3752 4.24278 1.81342 -3.54022 1.49188e-06
480 1 23.8568 1.05084 -3.60908 -3.54024 2.24949e-06
481 1 23.5023 2.82352 -1.80158 -3.54023 1.50755e-06
482 1 23.1481 4.596 0.00592406 -3.54023 1.05445e-06
483 1 22.7941 6.36825 1.81342 -3.54023 1.03466e-06
484 1 25.2751 3.17706 -3.60908 -3.54023 9.66171e-07
485 1 24.9211 4.94938 -1.80158 -3.54023 7.48793e-07
486 1 24.5673 6.72151 0.00592427 -3.54023 6.05481e-07
487 1 24.2138 8.49343 1.81342 -3.54022 4.9991e-07
488 1 26.6942 5.30291 -3.60908 -3.54023 4.33322e-07
489 1 26.3405 7.07496 -1.80158 -3.54022 2.96468e-07
490 1 25.9871 8.84688 0.00592454 -3.54021 3.59434e-07
491 1 25.6337 10.6187 1.81342 -3.5402 8.97779e-07
492 1 28.1136 7.42863 -3.60908 -3.54022 2.25066e-07
493 1 27.7602 9.20059 -1.80158 -3.54021 4.72507e-07
494 1 27.4067 10.9725 0.0059248 -3.54021 9.84178e-07
495 1 27.0532 12.7445 1.81342 -3.5402 1.474e-06
496 1 29.5331 9.55454 -3.60907 -3.54021 5.96814e-07
497 1 29.1795 11.3266 -1.80157 -3.54021 9.43957e-07
498 1 28.8258 13.0988 0.00592504 -3.54021 1.10856e-06
499 1 28.4719 14.871 1.81342 -3.54021 1.09034e-06
500 1 30.952 11.6809 -3.60907 -3.54021 7.93843e-07
501 1 30.5981 13.4532 -1.80157 -3.54021 7.40332e-07
502 1 30.244 15.2255 0.00592527 -3.54021 6.60409e-07
503 1 29.8898 16.998 1.81343 -3.54021 6.11567e-07
504 1 32.3702 13.8077 -3.60907 -3.54021 4.05942e-07
505 1 32.016 15.5802 -1.80157 -3.54021 3.97654e-07
506 1 31.6617 17.3527 0.00592545 -3.54021 4.08872e-07
507 1 33.788 15.9348 -3.60907 -3.54022 3.29027e-07
508 1 33.4335 17.7074 -1.80157 -3.54022 3.30296e-07
509 1 35.2054 18.0621 -3.60907 -3.54023 2.48425e-07
510 1 11.0982 -18.1048 0.00592184 -3.5396 0.000230469
511 1 10.7517 -16.3353 1.81342 -3.53965 0.000395113
512 1 12.8744 -17.7504 -1.80158 -3.53988 0.00013306
513 1 12.524 -15.9791 0.005922 -3.5401 8.06931e-05
514 1 12.1717 -14.2058 1.81342 -3.54044 2.5121e-05
515 1 14.6482 -17.3947 -3.60908 -3.54011 4.20431e-05
516 1 14.2959 -15.6229 -1.80158 -3.54026 1.36457e-05
517 1 13.943 -13.8502 0.00592216 -3.54035 7.3171e-06
518 1 13.5904 -12.077 1.81342 -3.54028 1.1244e-05
519 1 16.0681 -15.2669 -3.60908 -3.54026 4.35432e-06
520 1 15.7148 -13.4946 -1.80158 -3.54024 5.17782e-06
521 1 15.3616 -11.7216 0.00592241 -3.54018 1.24905e-05
522 1 15.0082 -9.9478 1.81342 -3.54016 1.84804e-05
523 1 17.4865 -13.1387 -3.60908 -3.5402 5.64893e-06
524 1 17.1325 -11.3657 -1.80158 -3.54018 8.20488e-06
525 1 16.7781 -9.59197 0.00592266 -3.54022 6.96741e-06
526 1 16.4232 -7.8175 1.81342 -3.54028 4.97555e-06
527 1 18.9034 -11.0097 -3.60908 -3.54021 3.46167e-06
528 1 18.5484 -9.2361 -1.80158 -3.54024 2.78057e-06
529 1 18.1932 -7.4621 0.00592291 -3.54026 2.90713e-06
530 1 17.8379 -5.68782 1.81342 -3.54025 2.38126e-06
531 1 20.3191 -8.88036 -3.60908 -3.54024 1.35546e-06
532 1 19.9637 -7.10672 -1.80158 -3.54024 1.6423e-06
533 1 19.6083 -5.33283 0.00592343 -3.54022 1.6853e-06
534 1 19.2528 -3.55871 1.81342 -3.54022 1.80618e-06
535 1 21.7346 -6.75139 -3.60908 -3.54023 1.05487e-06
536 1 21.3791 -4.9778 -1.80158 -3.54023 1.49767e-06
537 1 21.0236 -3.20403 0.0059237 -3.54024 2.46169e-06
538 1 20.668 -1.4302 1.81342 -3.54026 4.52072e-06
539 1 23.1503 -4.62285 -3.60908 -3.54023 1.59096e-06
540 1 22.7949 -2.84945 -1.80158 -3.54024 2.77355e-06
541 1 22.4395 -1.07607 0.00592392 -3.54025 3.96018e-06
542 1 22.0844 0.697148 1.81342 -3.54025 4.00353e-06
543 1 24.5666 -2.495 -3.60908 -3.54024 2.39815e-06
544 1 24.2116 -0.722012 -1.80158 -3.54024 2.69873e-06
545 1 23.8568 1.05084 0.00592417 -3.54024 2.24949e-06
546 1 23.5023 2.82352 1.81342 -3.54023 1.50755e-06
547 1 25.984 -0.367965 -3.60908 -3.54023 1.67332e-06
548 1 25.6294 1.40461 -1.80158 -3.54023 1.31921e-06
549 1 25.2751 3.17706 0.00592444 -3.54023 9.66171e-07
550 1 24.9211 4.94938 1.81342 -3.54023 7.48793e-07
551 1 27.4022 1.75846 -3.60908 -3.54023 7.77737e-07
552 1 27.0481 3.53073 -1.80158 -3.54023 5.91232e-07
553 1 26.6942 5.30291 0.00592468 -3.54023 4.33322e-07
554 1 26.3405 7.07496 1.81342 -3.54022 2.96468e-07
555 1 28.8211 3.88453 -3.60907 -3.54023 3.21251e-07
556 1 28.4673 5.65661 -1.80158 -3.54022 2.33231e-07
557 1 28.1136 7.42863 0.00592493 -3.54022 2.25066e-07
558 1 27.7602 9.20059 1.81342 -3.54021 4.72507e-07
559 1 30.2403 6.01049 -3.60907 -3.54022 1.56719e-07
560 1 29.8866 7.78251 -1.80157 -3.54021 2.7546e-07
561 1 29.5331 9.55454 0.00592517 -3.54021 5.96814e-07
562 1 29.1795 11.3266 1.81343 -3.54021 9.43957e-07
563 1 31.6595 8.13658 -3.60907 -3.54021 3.77213e-07
564 1 31.3058 9.90869 -1.80157 -3.54021 6.73868e-07
565 1 30.952 11.6809 0.00592536 -3.54021 7.93843e-07
566 1 30.5981 13.4532 1.81343 -3.54021 7.40332e-07
567 1 33.0783 10.263 -3.60907 -3.54022 6.4854e-07
568 1 32.7243 12.0353 -1.80157 -3.54021 5.20808e-07
569 1 32.3702 13.8077 0.00592551 -3.54021 4.05942e-07
570 1 32.016 15.5802 1.81343 -3.54021 3.97654e-07
571 1 34.4965 12.3898 -3.60907 -3.54021 1.96328e-07
572 1 34.1423 14.1623 -1.80157 -3.54021 2.11332e-07
573 1 33.788 15.9348 0.00592564 -3.54022 3.29027e-07
574 1 33.4335 17.7074 1.81343 -3.54022 3.30296e-07
575 1 35.9144 14.5169 -3.60907 -3.54021 2.60891e-07
576 1 35.56 16.2894 -1.80157 -3.54023 4.45465e-07