ITEM: TIMESTEP
0
ITEM: NUMBER OF ATOMS
2504
ITEM: BOX BOUNDS xy xz yz mm pp pp
-5.5498871899999997e+01 5.5498871899999997e+01 0.0000000000000000e+00
-1.8432957300000002e+01 1.8432957300000002e+01 0.0000000000000000e+00
-3.6150000000000002e+00 3.6150000000000002e+00 0.0000000000000000e+00
ITEM: ATOMS id type x y z c_eng c_csym
1 1 0.638333 16.7135 -3.61323 -3.44531 3.71614
2 1 0.284733 -18.3438 -1.80573 -3.28919 9.2165
3 1 1.02269 13.0103 -3.61323 -3.47956 0.470501
4 1 0.892261 14.757 -1.80573 -3.50365 0.596499
5 1 0.638333 16.7135 0.00177382 -3.44531 3.71614
6 1 0.284733 -18.3438 1.80927 -3.28919 9.2165
7 1 2.61067 15.1599 -3.61323 -3.54246 0.12322
8 1 2.29817 16.9866 -1.80573 -3.5241 0.0731275
9 1 3.99331 17.362 -3.61323 -3.54658 0.027949
10 1 0.622931 7.47928 -3.61323 -3.46145 3.26837
11 1 0.268945 9.2797 -1.80573 -3.29423 9.01046
12 1 1.88878 9.65446 -3.61323 -3.46484 0.617566
13 1 1.38998 11.4052 -1.80573 -3.44111 0.674576
14 1 1.02269 13.0103 0.00177414 -3.47956 0.470501
15 1 0.892261 14.757 1.80927 -3.50365 0.596499
16 1 3.26539 11.7168 -3.61323 -3.5184 0.0653214
17 1 2.95191 13.4128 -1.80573 -3.50884 0.0925829
18 1 2.61067 15.1599 0.00177428 -3.54246 0.12322
19 1 2.29817 16.9866 1.80927 -3.5241 0.0731275
20 1 4.73876 13.7954 -3.61323 -3.53216 0.0175615
21 1 4.37389 15.5601 -1.80573 -3.53829 0.00925821
22 1 3.99331 17.362 0.00177444 -3.54658 0.027949
23 1 6.12847 15.9409 -3.61323 -3.5406 0.0023448
24 1 5.75379 17.7183 -1.80573 -3.54453 0.00994446
25 1 7.53827 18.0667 -3.61323 -3.54081 0.00147017
26 1 1.0376 3.78769 -3.61323 -3.48508 0.43946
27 1 0.889184 5.53746 -1.80573 -3.51049 0.501078
28 1 0.622931 7.47928 0.00177382 -3.46145 3.26837
29 1 0.268945 9.2797 1.80927 -3.29428 9.01046
30 1 2.6102 5.94115 -3.61323 -3.54257 0.108033
31 1 2.29181 7.76301 -1.80573 -3.52436 0.0648346
32 1 1.88878 9.65446 0.00177433 -3.46484 0.617566
33 1 1.38998 11.4052 1.80927 -3.44111 0.674576
34 1 3.98985 8.14236 -3.61323 -3.54647 0.0255264
35 1 3.61381 9.95005 -1.80573 -3.54379 0.0514461
36 1 3.26539 11.7168 0.0017745 -3.5184 0.0653214
37 1 2.95191 13.4128 1.80927 -3.50884 0.0925829
38 1 5.39885 10.272 -3.61323 -3.54323 0.00574302
39 1 5.07611 12.0332 -1.80573 -3.53458 0.0101078
40 1 4.73876 13.7954 0.00177469 -3.53216 0.0175615
41 1 4.37389 15.5601 1.80927 -3.53829 0.00925821
42 1 6.85138 12.3826 -3.61323 -3.53857 0.00348544
43 1 6.49987 14.1596 -1.80573 -3.53824 0.00214755
44 1 6.12847 15.9409 0.00177475 -3.5406 0.0023448
45 1 5.75379 17.7183 1.80927 -3.54453 0.00994446
46 1 8.25926 14.5199 -3.61323 -3.54083 0.000383407
47 1 7.89563 16.2974 -1.80573 -3.54126 0.0019269
48 1 7.53827 18.0667 0.00177492 -3.54081 0.00147017
49 1 9.6718 16.6474 -3.61322 -3.54069 0.00042415
50 1 9.32234 18.4152 -1.80572 -3.53952 0.000187354
51 1 0.62503 -1.73949 -3.61323 -3.46346 3.21789
52 1 0.272178 0.0587479 -1.80573 -3.29672 8.95218
53 1 1.90174 0.428653 -3.61323 -3.469 0.593194
54 1 1.4098 2.17783 -1.80573 -3.44432 0.641855
55 1 1.0376 3.78769 0.00177414 -3.48508 0.439459
56 1 0.889184 5.53746 1.80927 -3.51042 0.501078
57 1 3.27755 2.49548 -3.61323 -3.51952 0.0605653
58 1 2.95721 4.19488 -1.80573 -3.51148 0.0822399
59 1 2.6102 5.94115 0.00177428 -3.54257 0.108033
60 1 2.29181 7.76301 1.80927 -3.52437 0.0648346
61 1 4.74199 4.57891 -3.61323 -3.5325 0.0160138
62 1 4.37379 6.34305 -1.80573 -3.53826 0.00817047
63 1 3.98985 8.14236 0.00177444 -3.54647 0.0255264
64 1 3.61381 9.95005 1.80927 -3.54379 0.0514461
65 1 6.12844 6.72521 -3.61323 -3.54056 0.00238321
66 1 5.75127 8.50147 -1.80573 -3.54434 0.00941109
67 1 5.39885 10.272 0.00177474 -3.54323 0.00574302
68 1 5.07611 12.0332 1.80927 -3.53458 0.0101078
69 1 7.53571 8.85195 -3.61323 -3.54072 0.00138607
70 1 7.19094 10.6143 -1.80573 -3.53928 0.00133113
71 1 6.85138 12.3826 0.00177491 -3.53857 0.00348544
72 1 6.49987 14.1596 1.80927 -3.53824 0.00214755
73 1 8.97055 10.9692 -3.61322 -3.53911 0.000801792
74 1 8.61854 12.7414 -1.80572 -3.53987 0.000621206
75 1 8.25926 14.5199 0.00177498 -3.54083 0.000383407
76 1 7.89563 16.2974 1.80927 -3.54126 0.0019269
77 1 10.386 13.1003 -3.61322 -3.54051 7.07656e-05
78 1 10.0274 14.875 -1.80572 -3.54108 0.000411221
79 1 9.6718 16.6474 0.00177514 -3.54069 0.00042415
80 1 9.32234 18.4152 1.80928 -3.53952 0.000187354
81 1 11.8016 15.228 -3.61322 -3.54058 0.000117872
82 1 11.4495 16.9982 -1.80572 -3.54012 3.69095e-05
83 1 13.2251 17.3514 -3.61322 -3.53999 3.92373e-05
84 1 1.04318 -5.42428 -3.61323 -3.48326 0.446894
85 1 0.891802 -3.67889 -1.80573 -3.5117 0.500246
86 1 0.62503 -1.73949 0.00177382 -3.46346 3.21789
87 1 0.272178 0.0587479 1.80927 -3.29679 8.95218
88 1 2.61653 -3.27274 -3.61323 -3.54316 0.105985
89 1 2.29837 -1.45594 -1.80573 -3.52623 0.0627742
90 1 1.90174 0.428653 0.00177433 -3.469 0.593194
91 1 1.4098 2.17783 1.80927 -3.44441 0.641855
92 1 4.00171 -1.07642 -3.61323 -3.54675 0.0227679
93 1 3.62776 0.72806 -1.80573 -3.54363 0.0435
94 1 3.27755 2.49548 0.0017745 -3.51952 0.0605653
95 1 2.95721 4.19488 1.80927 -3.51149 0.0822399
96 1 5.41014 1.05429 -3.61323 -3.54318 0.0047124
97 1 5.08343 2.81622 -1.80573 -3.535 0.00901885
98 1 4.74199 4.57891 0.00177469 -3.5325 0.0160138
99 1 4.37379 6.34305 1.80927 -3.53826 0.00817047
100 1 6.85671 3.16786 -3.61323 -3.53874 0.00306927
101 1 6.50228 4.94465 -1.80573 -3.53834 0.00199374
102 1 6.12844 6.72521 0.00177475 -3.54056 0.00238321
103 1 5.75127 8.50147 1.80927 -3.54434 0.00941109
104 1 8.26114 5.30613 -3.61323 -3.54082 0.000403946
105 1 7.89536 7.08322 -1.80573 -3.54122 0.00193046
106 1 7.53571 8.85195 0.00177492 -3.54072 0.00138607
107 1 7.19094 10.6143 1.80927 -3.53928 0.00133113
108 1 9.67102 7.4343 -3.61322 -3.54065 0.000418972
109 1 9.3193 9.20203 -1.80572 -3.53949 0.000179171
110 1 8.97055 10.9692 0.00177509 -3.53911 0.000801792
111 1 8.61854 12.7414 1.80928 -3.53987 0.000621206
112 1 11.0962 9.55555 -3.61322 -3.53962 0.000153225
113 1 10.743 11.3266 -1.80572 -3.53976 0.000166034
114 1 10.386 13.1003 0.00177521 -3.54051 7.07656e-05
115 1 10.0274 14.875 1.80928 -3.54108 0.000411221
116 1 12.5138 11.6833 -3.61322 -3.54024 1.21307e-05
117 1 12.1571 13.4561 -1.80572 -3.54056 8.32474e-05
118 1 11.8016 15.228 0.00177549 -3.54058 0.000117872
119 1 11.4495 16.9982 1.80928 -3.54012 3.69095e-05
120 1 13.9306 13.8102 -3.61322 -3.54038 3.1672e-05
121 1 13.5771 15.581 -1.80572 -3.54021 1.09615e-05
122 1 13.2251 17.3514 0.00177573 -3.53999 3.92373e-05
123 1 15.3516 15.9348 -3.61322 -3.54011 8.50956e-06
124 1 14.9987 17.7061 -1.80572 -3.54008 2.04477e-05
125 1 16.7713 18.0611 -3.61322 -3.54018 4.17406e-06
126 1 0.646707 -10.9388 -3.61323 -3.44808 3.635
127 1 0.299566 -9.13586 -1.80573 -3.29211 9.09301
128 1 1.91985 -8.77416 -3.61323 -3.46398 0.645341
129 1 1.42374 -7.02465 -1.80573 -3.43716 0.690092
130 1 1.04318 -5.42428 0.00177414 -3.48326 0.446893
131 1 0.891802 -3.67889 1.80927 -3.51163 0.500246
132 1 3.28987 -6.71105 -3.61323 -3.51903 0.0693586
133 1 2.96668 -5.01332 -1.80573 -3.51068 0.0827274
134 1 2.61653 -3.27274 0.00177428 -3.54316 0.105985
135 1 2.29837 -1.45594 1.80927 -3.52624 0.0627742
136 1 4.75248 -4.63187 -3.61323 -3.53231 0.0168338
137 1 4.3842 -2.87054 -1.80573 -3.53821 0.00736286
138 1 4.00171 -1.07642 0.00177452 -3.54675 0.0227679
139 1 3.62776 0.72806 1.80927 -3.54363 0.0435
140 1 6.14059 -2.48986 -3.61323 -3.54026 0.00210069
141 1 5.76407 -0.715353 -1.80573 -3.54403 0.0074945
142 1 5.41014 1.05429 0.00177474 -3.54318 0.0047124
143 1 5.08343 2.81622 1.80927 -3.535 0.00901885
144 1 7.54661 -0.363568 -3.61323 -3.5406 0.00108186
145 1 7.1995 1.39928 -1.80573 -3.53936 0.00113017
146 1 6.85671 3.16786 0.00177491 -3.53874 0.00306927
147 1 6.50228 4.94465 1.80927 -3.53834 0.00199374
148 1 8.977 1.75516 -3.61322 -3.53915 0.000706614
149 1 8.62268 3.5278 -1.80572 -3.53989 0.000523496
150 1 8.26114 5.30613 0.00177498 -3.54082 0.000403946
151 1 7.89536 7.08322 1.80927 -3.54122 0.00193046
152 1 10.3891 3.88713 -3.61322 -3.54048 7.04266e-05
153 1 10.0286 5.66207 -1.80572 -3.54104 0.000414386
154 1 9.67102 7.4343 0.00177514 -3.54065 0.000418972
155 1 9.3193 9.20203 1.80928 -3.53949 0.000179171
156 1 11.8019 6.01542 -3.61322 -3.54055 0.000119851
157 1 11.4481 7.78585 -1.80572 -3.54009 3.1987e-05
158 1 11.0962 9.55555 0.00177539 -3.53962 0.000153225
159 1 10.743 11.3266 1.80928 -3.53976 0.000166034
160 1 13.223 8.13937 -3.61322 -3.53999 2.55346e-05
161 1 12.8693 9.91077 -1.80572 -3.53998 4.14649e-05
162 1 12.5138 11.6833 0.00177558 -3.54024 1.21307e-05
163 1 12.1571 13.4561 1.80928 -3.54056 8.32474e-05
164 1 14.6413 10.266 -3.61322 -3.54021 2.72529e-06
165 1 14.2858 12.0383 -1.80572 -3.54036 1.69127e-05
166 1 13.9306 13.8102 0.00177579 -3.54038 3.1672e-05
167 1 13.5771 15.581 1.80928 -3.54021 1.09615e-05
168 1 16.0589 12.3925 -3.61322 -3.54031 8.54601e-06
169 1 15.7048 14.1639 -1.80572 -3.54022 3.86777e-06
170 1 15.3516 15.9348 0.00177609 -3.54011 8.50956e-06
171 1 14.9987 17.7061 1.80928 -3.54008 2.04477e-05
172 1 17.4786 14.5179 -3.61322 -3.54017 2.11254e-06
173 1 17.1251 16.2893 -1.80572 -3.54014 6.0985e-06
174 1 16.7713 18.0611 0.0017764 -3.54018 4.17406e-06
175 1 18.8979 16.644 -3.61322 -3.54019 1.94505e-06
176 1 18.5437 18.416 -1.80572 -3.54022 4.21464e-07
177 1 1.02577 -14.6331 -3.61323 -3.47716 0.49913
178 1 0.897911 -12.8882 -1.80573 -3.50616 0.581718
179 1 0.646707 -10.9388 0.00177382 -3.44808 3.635
180 1 0.299566 -9.13586 1.80927 -3.29213 9.09301
181 1 2.62062 -12.4891 -3.61323 -3.54286 0.123758
182 1 2.31197 -10.6671 -1.80573 -3.52554 0.0720945
183 1 1.91985 -8.77416 0.00177433 -3.46398 0.64534
184 1 1.42374 -7.02465 1.80927 -3.43725 0.690092
185 1 4.0099 -10.292 -3.61323 -3.54681 0.0250054
186 1 3.63931 -8.48223 -1.80573 -3.54377 0.0456421
187 1 3.28987 -6.71105 0.0017745 -3.51903 0.0693586
188 1 2.96668 -5.01332 1.80927 -3.51069 0.0827274
189 1 5.418 -8.16035 -3.61323 -3.54361 0.00514133
190 1 5.09321 -6.39537 -1.80573 -3.53526 0.00912621
191 1 4.75248 -4.63187 0.00177469 -3.53231 0.0168338
192 1 4.3842 -2.87054 1.80927 -3.53821 0.00736286
193 1 6.86493 -6.04754 -3.61323 -3.53888 0.00294008
194 1 6.51265 -4.26972 -1.80573 -3.53829 0.00216767
195 1 6.14059 -2.48986 0.00177475 -3.54026 0.00210069
196 1 5.76407 -0.715353 1.80927 -3.54403 0.0074945
197 1 8.27078 -3.91073 -3.61323 -3.54076 0.00032376
198 1 7.90653 -2.13288 -1.80573 -3.54105 0.00158079
199 1 7.54661 -0.363568 0.00177492 -3.5406 0.00108186
200 1 7.1995 1.39928 1.80927 -3.53936 0.00113017
201 1 9.67996 -1.78225 -3.61322 -3.54062 0.000316391
202 1 9.32759 -0.013024 -1.80572 -3.5395 0.00017575
203 1 8.977 1.75516 0.00177509 -3.53915 0.000706614
204 1 8.62268 3.5278 1.80928 -3.53989 0.000523496
205 1 11.1022 0.340458 -3.61322 -3.53966 0.000143991
206 1 10.7476 2.11279 -1.80572 -3.53977 0.000147481
207 1 10.3891 3.88713 0.00177529 -3.54048 7.04266e-05
208 1 10.0286 5.66207 1.80928 -3.54104 0.000414386
209 1 12.5169 2.46928 -3.61322 -3.54024 1.64196e-05
210 1 12.1589 4.24304 -1.80572 -3.54054 9.21513e-05
211 1 11.8019 6.01542 0.00177549 -3.54055 0.000119851
212 1 11.4481 7.78585 1.80928 -3.54009 3.1987e-05
213 1 13.9313 4.59696 -3.61322 -3.54037 3.70724e-05
214 1 13.5765 6.3685 -1.80572 -3.54019 1.11629e-05
215 1 13.223 8.13937 0.00177573 -3.53999 2.55346e-05
216 1 12.8693 9.91077 1.80928 -3.53998 4.14649e-05
217 1 15.3503 6.72215 -3.61322 -3.54011 4.12969e-06
218 1 14.9961 8.49386 -1.80572 -3.54009 9.14406e-06
219 1 14.6413 10.266 0.00177595 -3.54021 2.72529e-06
220 1 14.2858 12.0383 1.80928 -3.54036 1.69127e-05
221 1 16.7686 8.8484 -3.61322 -3.5402 7.43397e-07
222 1 16.4137 10.6206 -1.80572 -3.54028 3.53389e-06
223 1 16.0589 12.3925 0.0017762 -3.54031 8.54601e-06
224 1 15.7048 14.1639 1.80928 -3.54022 3.86777e-06
225 1 18.1866 10.9747 -3.61322 -3.54026 2.39976e-06
226 1 17.8324 12.7464 -1.80572 -3.54023 1.48408e-06
227 1 17.4786 14.5179 0.00177653 -3.54017 2.11254e-06
228 1 17.1251 16.2893 1.80928 -3.54014 6.0985e-06
229 1 19.6056 13.1005 -3.61322 -3.5402 6.7833e-07
230 1 19.2518 14.8722 -1.80572 -3.54017 1.98166e-06
231 1 18.8979 16.644 0.00177689 -3.54019 1.94505e-06
232 1 18.5437 18.416 1.80928 -3.54022 4.21464e-07
233 1 21.0246 15.2266 -3.61322 -3.5402 9.36963e-07
234 1 20.6704 16.9987 -1.80572 -3.54021 4.46531e-07
235 1 22.4428 17.3533 -3.61322 -3.54022 1.65066e-07
236 1 1.89982 -17.9806 -3.61323 -3.4588 0.68956
237 1 1.39649 -16.229 -1.80573 -3.43061 0.746792
238 1 1.02577 -14.6331 0.00177414 -3.47716 0.49913
239 1 0.897911 -12.8882 1.80927 -3.50616 0.581718
240 1 3.27423 -15.9235 -3.61323 -3.51753 0.0734919
241 1 2.96089 -14.2302 -1.80573 -3.50813 0.0939223
242 1 2.62062 -12.4891 0.00177428 -3.54286 0.123758
243 1 2.31197 -10.6671 1.80927 -3.52554 0.0720945
244 1 4.75032 -13.8514 -3.61323 -3.53184 0.0187679
245 1 4.38779 -12.0898 -1.80573 -3.5381 0.00927215
246 1 4.0099 -10.292 0.00177452 -3.54681 0.0250054
247 1 3.63931 -8.48223 1.80927 -3.54378 0.0456421
248 1 6.14326 -11.7099 -3.61323 -3.54032 0.00182312
249 1 5.76944 -9.93329 -1.80573 -3.54433 0.00780595
250 1 5.418 -8.16035 0.00177474 -3.54361 0.00514133
251 1 5.09321 -6.39537 1.80927 -3.53526 0.00912621
252 1 7.55056 -9.58276 -3.61323 -3.54075 0.00107332
253 1 7.2055 -7.81805 -1.80573 -3.53959 0.0011521
254 1 6.86493 -6.04754 0.00177491 -3.53888 0.00294008
255 1 6.51265 -4.26972 1.80927 -3.53829 0.00216767
256 1 8.98219 -7.46384 -3.61322 -3.53924 0.000691318
257 1 8.63005 -5.69007 -1.80572 -3.53995 0.000553523
258 1 8.27078 -3.91073 0.00177498 -3.54076 0.00032376
259 1 7.90653 -2.13288 1.80927 -3.54105 0.00158079
260 1 10.3957 -5.332 -3.61322 -3.54048 5.76451e-05
261 1 10.0369 -3.55593 -1.80572 -3.54101 0.00030008
262 1 9.67996 -1.78225 0.00177514 -3.54062 0.000316391
263 1 9.32759 -0.013024 1.80928 -3.5395 0.00017575
264 1 11.8084 -3.20286 -3.61322 -3.54055 7.8269e-05
265 1 11.4546 -1.43086 -1.80572 -3.54013 2.27179e-05
266 1 11.1022 0.340458 0.00177539 -3.53966 0.000143991
267 1 10.7476 2.11279 1.80928 -3.53977 0.000147481
268 1 13.2276 -1.07735 -3.61322 -3.54002 2.39529e-05
269 1 12.8733 0.695519 -1.80572 -3.54001 3.70604e-05
270 1 12.5169 2.46928 0.00177558 -3.54024 1.64196e-05
271 1 12.1589 4.24304 1.80928 -3.54054 9.21513e-05
272 1 14.6437 1.05063 -3.61322 -3.54023 3.627e-06
273 1 14.2874 2.82416 -1.80572 -3.54037 2.17913e-05
274 1 13.9313 4.59696 0.00177579 -3.54037 3.70724e-05
275 1 13.5765 6.3685 1.80928 -3.54019 1.11629e-05
276 1 16.0593 3.17813 -3.61322 -3.54031 1.13146e-05
277 1 15.7045 4.95043 -1.80572 -3.54023 5.21921e-06
278 1 15.3503 6.72215 0.00177609 -3.54011 4.12969e-06
279 1 14.9961 8.49386 1.80928 -3.54009 9.14406e-06
280 1 17.4775 5.30414 -3.61322 -3.54018 6.67923e-07
281 1 17.1232 7.07623 -1.80572 -3.54015 1.72499e-06
282 1 16.7686 8.8484 0.0017764 -3.5402 7.43397e-07
283 1 16.4137 10.6206 1.80928 -3.54028 3.53389e-06
284 1 18.8957 7.4304 -3.61322 -3.5402 1.63487e-07
285 1 18.5411 9.20266 -1.80572 -3.54024 8.76333e-07
286 1 18.1866 10.9747 0.00177672 -3.54026 2.39976e-06
287 1 17.8324 12.7464 1.80928 -3.54023 1.48408e-06
288 1 20.3138 9.55671 -3.61322 -3.54024 7.0938e-07
289 1 19.9596 11.3287 -1.80572 -3.54023 5.92914e-07
290 1 19.6056 13.1005 0.00177712 -3.5402 6.7833e-07
291 1 19.2518 14.8722 1.80928 -3.54017 1.98166e-06
292 1 21.7326 11.6827 -3.61322 -3.54021 2.53254e-07
293 1 21.3786 13.4547 -1.80572 -3.54019 7.18889e-07
294 1 21.0246 15.2266 0.00177745 -3.5402 9.36963e-07
295 1 20.6704 16.9987 1.80928 -3.54021 4.46531e-07
296 1 23.1512 13.809 -3.61322 -3.5402 4.53178e-07
297 1 22.7971 15.5811 -1.80572 -3.54021 3.55423e-07
298 1 22.4428 17.3533 0.00177772 -3.54022 1.65066e-07
299 1 24.5695 15.9356 -3.61322 -3.54022 1.68309e-07
300 1 24.2152 17.7079 -1.80572 -3.54022 1.30146e-07
301 1 25.9874 18.0625 -3.61322 -3.54021 1.16127e-07
302 1 1.89982 -17.9806 0.00177433 -3.4588 0.68956
303 1 1.39649 -16.229 1.80927 -3.43061 0.746792
304 1 3.62076 -17.6927 -1.80573 -3.54383 0.0542425
305 1 3.27423 -15.9235 0.0017745 -3.51753 0.0734919
306 1 2.96089 -14.2302 1.80927 -3.50813 0.0939223
307 1 5.40423 -17.3753 -3.61323 -3.54352 0.00633568
308 1 5.08468 -15.6129 -1.80573 -3.53469 0.0102919
309 1 4.75032 -13.8514 0.00177469 -3.53184 0.0187679
310 1 4.38779 -12.0898 1.80927 -3.5381 0.00927215
311 1 6.86008 -15.2674 -3.61323 -3.53863 0.00365658
312 1 6.512 -13.4904 -1.80573 -3.53811 0.00254267
313 1 6.14326 -11.7099 0.00177475 -3.54032 0.00182312
314 1 5.76944 -9.93329 1.80927 -3.54433 0.00780595
315 1 8.27063 -13.1318 -3.61323 -3.54073 0.000274191
316 1 7.90856 -11.3534 -1.80573 -3.5411 0.00142687
317 1 7.55056 -9.58276 0.00177492 -3.54075 0.00107332
318 1 7.2055 -7.81805 1.80927 -3.53959 0.0011521
319 1 9.6817 -11.003 -3.61322 -3.54066 0.00028882
320 1 9.33093 -9.23303 -1.80572 -3.53957 0.000147039
321 1 8.98219 -7.46384 0.00177509 -3.53924 0.000691318
322 1 8.63005 -5.69007 1.80928 -3.53995 0.000553523
323 1 11.1053 -8.88002 -3.61322 -3.53969 0.00014157
324 1 10.7524 -7.10714 -1.80572 -3.53979 0.000157523
325 1 10.3957 -5.332 0.00177529 -3.54048 5.76451e-05
326 1 10.0369 -3.55593 1.80928 -3.54101 0.00030008
327 1 12.5213 -6.75095 -3.61322 -3.54023 1.30181e-05
328 1 12.1645 -4.97644 -1.80572 -3.54052 5.64732e-05
329 1 11.8084 -3.20286 0.00177549 -3.54055 7.8269e-05
330 1 11.4546 -1.43086 1.80928 -3.54013 2.27179e-05
331 1 13.9358 -4.62235 -3.61322 -3.54037 1.98333e-05
332 1 13.5812 -2.84965 -1.80572 -3.54021 4.80761e-06
333 1 13.2276 -1.07735 0.00177573 -3.54002 2.39529e-05
334 1 12.8733 0.695519 1.80928 -3.54001 3.70604e-05
335 1 15.3535 -2.4957 -3.61322 -3.54013 3.57065e-06
336 1 14.9991 -0.722783 -1.80572 -3.54012 8.1972e-06
337 1 14.6437 1.05063 0.00177595 -3.54023 3.627e-06
338 1 14.2874 2.82416 1.80928 -3.54037 2.17913e-05
339 1 16.7702 -0.368094 -3.61322 -3.54021 9.15037e-07
340 1 16.4148 1.40517 -1.80572 -3.54029 5.28672e-06
341 1 16.0593 3.17813 0.0017762 -3.54031 1.13146e-05
342 1 15.7045 4.95043 1.80928 -3.54023 5.21921e-06
343 1 18.1867 1.7593 -3.61322 -3.54027 3.66503e-06
344 1 17.8319 3.53189 -1.80572 -3.54024 2.32802e-06
345 1 17.4775 5.30414 0.00177653 -3.54018 6.67923e-07
346 1 17.1232 7.07623 1.80928 -3.54015 1.72499e-06
347 1 19.6045 3.88576 -3.61322 -3.54021 2.60909e-07
348 1 19.2501 5.6581 -1.80572 -3.54019 1.95526e-07
349 1 18.8957 7.4304 0.00177697 -3.5402 1.63487e-07
350 1 18.5411 9.20266 1.80928 -3.54024 8.76333e-07
351 1 21.0226 6.01217 -3.61322 -3.54021 2.17746e-08
352 1 20.6682 7.78451 -1.80572 -3.54023 2.36904e-07
353 1 20.3138 9.55671 0.00177731 -3.54024 7.0938e-07
354 1 19.9596 11.3287 1.80928 -3.54023 5.92914e-07
355 1 22.4408 8.13856 -3.61322 -3.54023 2.15809e-07
356 1 22.0866 9.91073 -1.80572 -3.54022 2.15583e-07
357 1 21.7326 11.6827 0.00177763 -3.54021 2.53254e-07
358 1 21.3786 13.4547 1.80928 -3.54019 7.18889e-07
359 1 23.8594 10.2648 -3.61322 -3.54021 9.1948e-08
360 1 23.5053 12.0369 -1.80572 -3.54021 2.74383e-07
361 1 23.1512 13.809 0.0017779 -3.5402 4.53178e-07
362 1 22.7971 15.5811 1.80928 -3.54021 3.55423e-07
363 1 25.2779 12.3912 -3.61322 -3.54021 2.18635e-07
364 1 24.9237 14.1634 -1.80572 -3.54021 2.34598e-07
365 1 24.5695 15.9356 0.00177816 -3.54022 1.68309e-07
366 1 24.2152 17.7079 1.80928 -3.54022 1.30146e-07
367 1 26.6961 14.5178 -3.61322 -3.54022 1.30857e-07
368 1 26.3418 16.2902 -1.80572 -3.54022 1.08654e-07
369 1 25.9874 18.0625 0.0017785 -3.54021 1.16127e-07
370 1 28.1141 16.6447 -3.61322 -3.54021 7.44744e-08
371 1 27.7596 18.4171 -1.80572 -3.54021 8.73114e-08
372 1 3.62076 -17.6927 1.80927 -3.54383 0.0542425
373 1 5.40423 -17.3753 0.00177474 -3.54352 0.00633568
374 1 5.08468 -15.6129 1.80927 -3.53469 0.0102919
375 1 7.19627 -17.0362 -1.80573 -3.53941 0.00142455
376 1 6.86008 -15.2674 0.00177491 -3.53863 0.00365658
377 1 6.512 -13.4904 1.80927 -3.53811 0.00254267
378 1 8.97624 -16.6834 -3.61322 -3.53913 0.000892572
379 1 8.62719 -14.9108 -1.80572 -3.53985 0.000776633
380 1 8.27063 -13.1318 0.00177498 -3.54073 0.000274191
381 1 7.90856 -11.3534 1.80927 -3.5411 0.00142687
382 1 10.394 -14.5528 -3.61322 -3.54046 6.72216e-05
383 1 10.037 -12.777 -1.80572 -3.54102 0.000258649
384 1 9.6817 -11.003 0.00177514 -3.54066 0.00028882
385 1 9.33093 -9.23303 1.80928 -3.53957 0.000147039
386 1 11.8089 -12.4237 -3.61322 -3.54058 6.8876e-05
387 1 11.4564 -10.6517 -1.80572 -3.54016 2.19237e-05
388 1 11.1053 -8.88002 0.00177539 -3.53969 0.00014157
389 1 10.7524 -7.10714 1.80928 -3.53979 0.000157523
390 1 13.2295 -10.298 -3.61322 -3.54004 2.95757e-05
391 1 12.8764 -8.52508 -1.80572 -3.54001 4.53195e-05
392 1 12.5213 -6.75095 0.00177558 -3.54023 1.30181e-05
393 1 12.1645 -4.97644 1.80928 -3.54052 5.64732e-05
394 1 14.6467 -8.16975 -3.61322 -3.54022 5.17202e-06
395 1 14.2912 -6.39588 -1.80572 -3.54035 1.05355e-05
396 1 13.9358 -4.62235 0.00177579 -3.54037 1.98333e-05
397 1 13.5812 -2.84965 1.80928 -3.54021 4.80761e-06
398 1 16.0625 -6.04142 -3.61322 -3.54031 4.9608e-06
399 1 15.7078 -4.26843 -1.80572 -3.54023 1.53669e-06
400 1 15.3535 -2.4957 0.00177609 -3.54013 3.57065e-06
401 1 14.9991 -0.722783 1.80928 -3.54012 8.1972e-06
402 1 17.4798 -3.91419 -3.61322 -3.54019 4.50525e-07
403 1 17.1252 -2.14126 -1.80572 -3.54017 1.58516e-06
404 1 16.7702 -0.368094 0.0017764 -3.54021 9.15037e-07
405 1 16.4148 1.40517 1.80928 -3.54029 5.28672e-06
406 1 18.8968 -1.78671 -3.61322 -3.54021 3.00749e-07
407 1 18.5417 -0.0136403 -1.80572 -3.54025 1.52998e-06
408 1 18.1867 1.7593 0.00177672 -3.54027 3.66503e-06
409 1 17.8319 3.53189 1.80928 -3.54024 2.32802e-06
410 1 20.3137 0.34061 -3.61322 -3.54025 1.35524e-06
411 1 19.959 2.11329 -1.80572 -3.54024 1.13608e-06
412 1 19.6045 3.88576 0.00177712 -3.54021 2.60909e-07
413 1 19.2501 5.6581 1.80928 -3.54019 1.95526e-07
414 1 21.7314 2.46733 -3.61322 -3.54022 2.44014e-07
415 1 21.377 4.23978 -1.80572 -3.54021 3.66077e-08
416 1 21.0226 6.01217 0.00177745 -3.54021 2.17746e-08
417 1 20.6682 7.78451 1.80928 -3.54023 2.36904e-07
418 1 23.1495 4.59388 -3.61322 -3.54022 3.18694e-08
419 1 22.7951 6.36626 -1.80572 -3.54022 8.51072e-08
420 1 22.4408 8.13856 0.00177772 -3.54023 2.15809e-07
421 1 22.0866 9.91073 1.80928 -3.54022 2.15583e-07
422 1 24.5677 6.72037 -3.61322 -3.54023 8.18848e-08
423 1 24.2135 8.49263 -1.80572 -3.54022 7.85761e-08
424 1 23.8594 10.2648 0.00177804 -3.54021 9.1948e-08
425 1 23.5053 12.0369 1.80928 -3.54021 2.74383e-07
426 1 25.9861 8.84677 -3.61322 -3.54022 3.7497e-08
427 1 25.632 10.619 -1.80572 -3.54021 1.09041e-07
428 1 25.2779 12.3912 0.00177837 -3.54021 2.18635e-07
429 1 24.9237 14.1634 1.80928 -3.54021 2.34598e-07
430 1 27.4045 10.9733 -3.61322 -3.54021 1.13152e-07
431 1 27.0503 12.7455 -1.80572 -3.54021 1.48876e-07
432 1 26.6961 14.5178 0.00177868 -3.54022 1.30857e-07
433 1 26.3418 16.2902 1.80928 -3.54022 1.08654e-07
434 1 28.8227 13.0999 -3.61322 -3.54022 9.88492e-08
435 1 28.4684 14.8723 -1.80572 -3.54022 7.78317e-08
436 1 28.1141 16.6447 0.00177899 -3.54021 7.44744e-08
437 1 27.7596 18.4171 1.80928 -3.54021 8.73114e-08
438 1 30.2407 15.2268 -3.61322 -3.54021 4.06268e-08
439 1 29.8863 16.9992 -1.80572 -3.54021 5.12071e-08
440 1 31.6585 17.3537 -3.61322 -3.54022 4.99755e-08
441 1 7.19627 -17.0362 1.80927 -3.53941 0.00142455
442 1 8.97624 -16.6834 0.00177509 -3.53913 0.000892572
443 1 8.62719 -14.9108 1.80928 -3.53985 0.000776633
444 1 11.0998 -18.0981 -3.61322 -3.53962 0.000184897
445 1 10.7488 -16.3269 -1.80572 -3.53973 0.000230538
446 1 10.394 -14.5528 0.00177521 -3.54046 6.72216e-05
447 1 10.037 -12.777 1.80928 -3.54102 0.000258649
448 1 12.5192 -15.9705 -3.61322 -3.5402 1.88973e-05
449 1 12.1638 -14.1969 -1.80572 -3.54053 3.99819e-05
450 1 11.8089 -12.4237 0.00177549 -3.54058 6.8876e-05
451 1 11.4564 -10.6517 1.80928 -3.54016 2.19237e-05
452 1 13.9358 -13.8424 -3.61322 -3.54037 1.33194e-05
453 1 13.5822 -12.0702 -1.80572 -3.54023 5.16896e-06
454 1 13.2295 -10.298 0.00177573 -3.54004 2.95757e-05
455 1 12.8764 -8.52508 1.80928 -3.54001 4.53195e-05
456 1 15.3549 -11.7158 -3.61322 -3.54013 6.45398e-06
457 1 15.0012 -9.94315 -1.80572 -3.54012 1.34943e-05
458 1 14.6467 -8.16975 0.00177595 -3.54022 5.17202e-06
459 1 14.2912 -6.39588 1.80928 -3.54035 1.05355e-05
460 1 16.7725 -9.58798 -3.61322 -3.54021 2.23832e-06
461 1 16.4175 -7.81472 -1.80572 -3.54028 2.1901e-06
462 1 16.0625 -6.04142 0.0017762 -3.54031 4.9608e-06
463 1 15.7078 -4.26843 1.80928 -3.54023 1.53669e-06
464 1 18.189 -7.45997 -3.61322 -3.54026 1.2655e-06
465 1 17.8343 -5.68705 -1.80572 -3.54024 6.69232e-07
466 1 17.4798 -3.91419 0.00177653 -3.54019 4.50525e-07
467 1 17.1252 -2.14126 1.80928 -3.54017 1.58516e-06
468 1 19.6062 -5.33254 -3.61322 -3.54021 1.24793e-07
469 1 19.2516 -3.55969 -1.80572 -3.5402 3.16695e-07
470 1 18.8968 -1.78671 0.00177697 -3.54021 3.00749e-07
471 1 18.5417 -0.0136403 1.80928 -3.54025 1.52998e-06
472 1 21.0234 -3.20512 -3.61322 -3.54022 1.62998e-07
473 1 20.6685 -1.43224 -1.80572 -3.54024 5.83915e-07
474 1 20.3137 0.34061 0.00177731 -3.54025 1.35524e-06
475 1 19.959 2.11329 1.80928 -3.54024 1.13608e-06
476 1 22.4406 -1.07786 -3.61322 -3.54024 5.91966e-07
477 1 22.0859 0.694792 -1.80572 -3.54023 6.06288e-07
478 1 21.7314 2.46733 0.00177763 -3.54022 2.44014e-07
479 1 21.377 4.23978 1.80928 -3.54021 3.66077e-08
480 1 23.8583 1.04899 -3.61322 -3.54022 2.17941e-07
481 1 23.5038 2.82146 -1.80572 -3.54022 7.5348e-08
482 1 23.1495 4.59388 0.0017779 -3.54022 3.18694e-08
483 1 22.7951 6.36626 1.80928 -3.54022 8.51072e-08
484 1 25.2763 3.17564 -3.61322 -3.54022 5.1821e-08
485 1 24.922 4.94803 -1.80572 -3.54022 5.41948e-08
486 1 24.5677 6.72037 0.00177816 -3.54023 8.18848e-08
487 1 24.2135 8.49263 1.80928 -3.54022 7.85761e-08
488 1 26.6945 5.30222 -3.61322 -3.54022 4.54235e-08
489 1 26.3402 7.07452 -1.80572 -3.54022 3.89788e-08
490 1 25.9861 8.84677 0.0017785 -3.54022 3.7497e-08
491 1 25.632 10.619 1.80928 -3.54021 1.09041e-07
492 1 28.1128 7.42873 -3.61322 -3.54022 2.11707e-08
493 1 27.7586 9.201 -1.80572 -3.54021 4.80702e-08
494 1 27.4045 10.9733 0.00177882 -3.54021 1.13152e-07
495 1 27.0503 12.7455 1.80928 -3.54021 1.48876e-07
496 1 29.5311 9.5553 -3.61322 -3.54022 6.6144e-08
497 1 29.1769 11.3276 -1.80572 -3.54022 1.04544e-07
498 1 28.8227 13.0999 0.00177912 -3.54022 9.88492e-08
499 1 28.4684 14.8723 1.80928 -3.54022 7.78317e-08
500 1 30.9493 11.682 -3.61322 -3.54022 8.53034e-08
501 1 30.595 13.4544 -1.80572 -3.54022 5.3657e-08
502 1 30.2407 15.2268 0.00177941 -3.54021 4.06268e-08
503 1 29.8863 16.9992 1.80928 -3.54021 5.12071e-08
504 1 32.3673 13.8089 -3.61322 -3.54021 1.37706e-08
505 1 32.0129 15.5813 -1.80572 -3.54021 2.39302e-08
506 1 31.6585 17.3537 0.00177963 -3.54022 4.99755e-08
507 1 33.7851 15.9358 -3.61322 -3.54022 4.47859e-08
508 1 33.4307 17.7082 -1.80572 -3.54022 7.51154e-08
509 1 35.2028 18.0628 -3.61322 -3.54023 9.84435e-08
510 1 11.0998 -18.0981 0.00177539 -3.53962 0.000184897
511 1 10.7488 -16.3269 1.80928 -3.53973 0.000230538
512 1 12.873 -17.7433 -1.80572 -3.53996 6.87541e-05
513 1 12.5192 -15.9705 0.00177558 -3.5402 1.88973e-05
514 1 12.1638 -14.1969 1.80928 -3.54053 3.99819e-05
515 1 14.645 -17.3878 -3.61322 -3.54019 9.05251e-06
516 1 14.2904 -15.6151 -1.80572 -3.54034 4.78614e-06
517 1 13.9358 -13.8424 0.00177579 -3.54037 1.33194e-05
518 1 13.5822 -12.0702 1.80928 -3.54023 5.16896e-06
519 1 16.0625 -15.2602 -3.61322 -3.5403 1.97968e-06
520 1 15.7085 -13.488 -1.80572 -3.54023 9.69632e-07
521 1 15.3549 -11.7158 0.00177609 -3.54013 6.45398e-06
522 1 15.0012 -9.94315 1.80928 -3.54012 1.34943e-05
523 1 17.481 -13.1333 -3.61322 -3.54018 1.58234e-06
524 1 17.1269 -11.3609 -1.80572 -3.54016 3.96115e-06
525 1 16.7725 -9.58798 0.0017764 -3.54021 2.23832e-06
526 1 16.4175 -7.81472 1.80928 -3.54028 2.1901e-06
527 1 18.8987 -11.0058 -3.61322 -3.54021 9.37631e-07
528 1 18.5439 -9.23295 -1.80572 -3.54024 5.37317e-07
529 1 18.189 -7.45997 0.00177672 -3.54026 1.2655e-06
530 1 17.8343 -5.68705 1.80928 -3.54024 6.69232e-07
531 1 20.3157 -8.87808 -3.61322 -3.54024 3.15345e-07
532 1 19.9609 -7.10532 -1.80572 -3.54023 2.85704e-07
533 1 19.6062 -5.33254 0.00177712 -3.54021 1.24793e-07
534 1 19.2516 -3.55969 1.80928 -3.5402 3.16695e-07
535 1 21.7329 -6.75065 -3.61322 -3.54022 6.64645e-08
536 1 21.3782 -4.97793 -1.80572 -3.54021 9.86947e-08
537 1 21.0234 -3.20512 0.00177745 -3.54022 1.62998e-07
538 1 20.6685 -1.43224 1.80928 -3.54024 5.83915e-07
539 1 23.1501 -4.62331 -3.61322 -3.54022 9.64406e-08
540 1 22.7953 -2.85059 -1.80572 -3.54023 2.79064e-07
541 1 22.4406 -1.07786 0.00177772 -3.54024 5.91966e-07
542 1 22.0859 0.694792 1.80928 -3.54023 6.06288e-07
543 1 24.5675 -2.49612 -3.61322 -3.54023 2.88971e-07
544 1 24.2128 -0.723535 -1.80572 -3.54023 3.45622e-07
545 1 23.8583 1.04899 0.00177804 -3.54022 2.17941e-07
546 1 23.5038 2.82146 1.80928 -3.54022 7.5348e-08
547 1 25.9852 -0.369214 -3.61322 -3.54022 1.68578e-07
548 1 25.6307 1.40323 -1.80572 -3.54022 9.34737e-08
549 1 25.2763 3.17564 0.00177837 -3.54022 5.1821e-08
550 1 24.922 4.94803 1.80928 -3.54022 5.41948e-08
551 1 27.4032 1.7575 -3.61322 -3.54022 5.07087e-08
552 1 27.0488 3.52987 -1.80572 -3.54022 4.20498e-08
553 1 26.6945 5.30222 0.00177868 -3.54022 4.54235e-08
554 1 26.3402 7.07452 1.80928 -3.54022 3.89788e-08
555 1 28.8213 3.88413 -3.61322 -3.54022 2.93075e-08
556 1 28.467 5.65645 -1.80572 -3.54022 2.76776e-08
557 1 28.1128 7.42873 0.00177899 -3.54022 2.11707e-08
558 1 27.7586 9.201 1.80928 -3.54021 4.80702e-08
559 1 30.2395 6.01073 -3.61322 -3.54022 1.56056e-08
560 1 29.8853 7.78302 -1.80572 -3.54022 2.16479e-08
561 1 29.5311 9.5553 0.00177928 -3.54022 6.6144e-08
562 1 29.1769 11.3276 1.80928 -3.54022 1.04544e-07
563 1 31.6578 8.13735 -3.61322 -3.54022 4.11883e-08
564 1 31.3036 9.90966 -1.80572 -3.54022 8.96356e-08
565 1 30.9493 11.682 0.00177951 -3.54022 8.53034e-08
566 1 30.595 13.4544 1.80928 -3.54022 5.3657e-08
567 1 33.0759 10.2641 -3.61322 -3.54022 9.81352e-08
568 1 32.7216 12.0365 -1.80572 -3.54022 3.96811e-08
569 1 32.3673 13.8089 0.0017797 -3.54021 1.37706e-08
570 1 32.0129 15.5813 1.80928 -3.54021 2.39302e-08
571 1 34.4939 12.391 -3.61322 -3.54021 2.1459e-09
572 1 34.1395 14.1634 -1.80572 -3.54021 6.68585e-09
573 1 33.7851 15.9358 0.00177986 -3.54022 4.47859e-08
574 1 33.4307 17.7082 1.80928 -3.54022 7.51154e-08
575 1 35.9118 14.5179 -3.61322 -3.54021 4.7901e-08
576 1 35.5574 16.2903 -1.80572 -3.54023 1.55684e-07