ITEM: TIMESTEP
0
ITEM: NUMBER OF ATOMS
2504
ITEM: BOX BOUNDS xy xz yz mm pp pp
-5.5498871899999997e+01 5.5498871899999997e+01 0.0000000000000000e+00
-1.8432957300000002e+01 1.8432957300000002e+01 0.0000000000000000e+00
-3.6150000000000002e+00 3.6150000000000002e+00 0.0000000000000000e+00
ITEM: ATOMS id type x y z c_eng c_csym
1 1 0.630966 16.7732 -3.5996 -3.43896 3.52557
2 1 0.292145 -18.2741 -1.7921 -3.28059 9.02462
3 1 0.980928 13.0538 -3.5996 -3.50238 0.29652
4 1 0.846522 14.8119 -1.7921 -3.50395 0.582433
5 1 0.630966 16.7732 0.0153976 -3.43896 3.52557
6 1 0.292145 -18.2741 1.8229 -3.28059 9.02462
7 1 2.57272 15.1819 -3.5996 -3.54036 0.118496
8 1 2.28247 17.0225 -1.7921 -3.51914 0.085172
9 1 3.9689 17.3801 -3.5996 -3.54414 0.0304961
10 1 0.497489 7.40328 -3.5996 -3.5226 0.714052
11 1 0.155308 9.15041 -1.7921 -3.38764 2.04301
12 1 1.79911 9.59896 -3.5996 -3.50667 0.183378
13 1 1.32009 11.3665 -1.7921 -3.50841 0.280155
14 1 0.980928 13.0538 0.0153977 -3.50238 0.29652
15 1 0.846522 14.8119 1.8229 -3.50395 0.582433
16 1 3.18411 11.6939 -3.5996 -3.52632 0.0317436
17 1 2.88143 13.409 -1.7921 -3.51669 0.0625159
18 1 2.57272 15.1819 0.0153978 -3.54036 0.118496
19 1 2.28247 17.0225 1.8229 -3.51914 0.085172
20 1 4.67613 13.7834 -3.5996 -3.53356 0.0126554
21 1 4.33136 15.5587 -1.7921 -3.53783 0.0161254
22 1 3.9689 17.3801 0.0153978 -3.54414 0.0304961
23 1 6.08609 15.9328 -3.5996 -3.54111 0.00322341
24 1 5.72325 17.7205 -1.7921 -3.545 0.0152427
25 1 7.51109 18.0577 -3.5996 -3.54166 0.00374698
26 1 1.11014 3.78414 -3.5996 -3.53672 0.0889025
27 1 0.819854 5.56878 -1.7921 -3.54381 0.0469306
28 1 0.497489 7.40328 0.0153976 -3.5226 0.713963
29 1 0.155308 9.15041 1.8229 -3.38851 2.04301
30 1 2.56866 5.94547 -3.5996 -3.54134 0.0227588
31 1 2.22732 7.74465 -1.7921 -3.5244 0.0364416
32 1 1.79911 9.59896 0.0153978 -3.50667 0.183378
33 1 1.32009 11.3665 1.8229 -3.50842 0.280155
34 1 3.93886 8.13653 -3.5996 -3.54304 0.0135703
35 1 3.5435 9.93404 -1.7921 -3.5428 0.0466962
36 1 3.18411 11.6939 0.0153978 -3.52632 0.0317436
37 1 2.88143 13.409 1.8229 -3.51669 0.0625159
38 1 5.33896 10.2692 -3.5996 -3.54164 0.00661794
39 1 5.00775 12.0242 -1.7921 -3.53446 0.00595584
40 1 4.67613 13.7834 0.0153986 -3.53356 0.0126554
41 1 4.33136 15.5587 1.8229 -3.53783 0.0161254
42 1 6.79665 12.3781 -3.5996 -3.53791 0.00262966
43 1 6.44853 14.1498 -1.7921 -3.53805 0.00186988
44 1 6.08609 15.9328 0.0153986 -3.54111 0.00322341
45 1 5.72325 17.7205 1.8229 -3.545 0.0152427
46 1 8.2176 14.5121 -3.5996 -3.54059 0.000469531
47 1 7.85903 16.2872 -1.7921 -3.54159 0.00285321
48 1 7.51109 18.0577 0.0153986 -3.54166 0.00374698
49 1 9.64473 16.6348 -3.5996 -3.5408 0.00100515
50 1 9.30533 18.3983 -1.7921 -3.53981 0.000548018
51 1 0.515681 -1.83302 -3.5996 -3.52774 0.522989
52 1 0.183334 -0.104837 -1.7921 -3.42113 1.35773
53 1 1.91144 0.301648 -3.5996 -3.52609 0.0764415
54 1 1.4919 2.05555 -1.7921 -3.52538 0.0759765
55 1 1.11014 3.78414 0.0153977 -3.53672 0.0888136
56 1 0.819854 5.56878 1.8229 -3.54306 0.0469306
57 1 3.28943 2.43535 -3.5996 -3.53366 0.00638484
58 1 2.92738 4.17965 -1.7921 -3.53438 0.00802791
59 1 2.56866 5.94547 0.0153978 -3.54134 0.0227588
60 1 2.22732 7.74465 1.8229 -3.52452 0.0364416
61 1 4.70409 4.56698 -3.5996 -3.53694 0.0024235
62 1 4.33058 6.33757 -1.7921 -3.53782 0.0050303
63 1 3.93886 8.13653 0.0153978 -3.54304 0.0135703
64 1 3.5435 9.93404 1.8229 -3.5428 0.0466962
65 1 6.08583 6.72357 -3.5996 -3.54093 0.00235007
66 1 5.7014 8.50075 -1.7921 -3.54348 0.00980754
67 1 5.33896 10.2692 0.0153986 -3.54164 0.00661794
68 1 5.00775 12.0242 1.8229 -3.53446 0.00595584
69 1 7.4889 8.8558 -3.5996 -3.54085 0.00218239
70 1 7.13848 10.6154 -1.7921 -3.53896 0.000817532
71 1 6.79665 12.3781 0.0153986 -3.53791 0.00262966
72 1 6.44853 14.1498 1.8229 -3.53805 0.00186988
73 1 8.92669 10.9719 -3.5996 -3.53906 0.000480818
74 1 8.57458 12.7386 -1.7921 -3.5395 0.000482399
75 1 8.2176 14.5121 0.0153987 -3.54059 0.000469531
76 1 7.85903 16.2872 1.8229 -3.54159 0.00285321
77 1 10.3515 13.0984 -3.5996 -3.54039 0.000112579
78 1 9.9952 14.8676 -1.7921 -3.54099 0.000723015
79 1 9.64473 16.6348 0.0153987 -3.5408 0.00100515
80 1 9.30533 18.3983 1.8229 -3.53981 0.000548018
81 1 11.7794 15.2197 -3.5996 -3.54055 0.000310618
82 1 11.4336 16.9831 -1.7921 -3.54006 0.000177121
83 1 13.2199 17.3346 -3.5996 -3.53981 0.000140747
84 1 1.15856 -5.39327 -3.5996 -3.53032 0.134031
85 1 0.842543 -3.64661 -1.7921 -3.54903 0.0623332
86 1 0.515681 -1.83302 0.0153976 -3.52774 0.5229
87 1 0.183334 -0.104837 1.8229 -3.42137 1.35773
88 1 2.62349 -3.24857 -3.5996 -3.54329 0.0182931
89 1 2.28424 -1.4932 -1.7921 -3.53407 0.0172629
90 1 1.91144 0.301648 0.0153978 -3.52609 0.076397
91 1 1.4919 2.05555 1.8229 -3.52578 0.0759765
92 1 4.04162 -1.09984 -3.5996 -3.54269 0.00252179
93 1 3.66445 0.669771 -1.7921 -3.5409 0.00301565
94 1 3.28943 2.43535 0.0153978 -3.53366 0.00638484
95 1 2.92738 4.17965 1.8229 -3.5345 0.00802791
96 1 5.43676 1.042 -3.5996 -3.54143 0.000417605
97 1 5.07119 2.80316 -1.7921 -3.53862 0.000683023
98 1 4.70409 4.56698 0.0153986 -3.53694 0.0024235
99 1 4.33058 6.33757 1.8229 -3.53782 0.0050303
100 1 6.84285 3.17637 -3.5996 -3.53942 0.000503004
101 1 6.46939 4.94642 -1.7921 -3.53901 0.000595819
102 1 6.08583 6.72357 0.0153986 -3.54093 0.00235007
103 1 5.7014 8.50075 1.8229 -3.54348 0.00980754
104 1 8.23386 5.31894 -3.5996 -3.54055 0.000695152
105 1 7.85666 7.09027 -1.7921 -3.54129 0.00247038
106 1 7.4889 8.8558 0.0153986 -3.54085 0.00218239
107 1 7.13848 10.6154 1.8229 -3.53896 0.000817532
108 1 9.63798 7.44801 -3.5996 -3.54049 0.000835396
109 1 9.27898 9.21016 -1.7921 -3.53957 0.000204986
110 1 8.92669 10.9719 0.0153987 -3.53906 0.000480818
111 1 8.57458 12.7386 1.8229 -3.5395 0.000482399
112 1 11.0639 9.56633 -3.5996 -3.53954 7.39454e-05
113 1 10.7081 11.3309 -1.7921 -3.5397 7.93342e-05
114 1 10.3515 13.0984 0.0153987 -3.54039 0.000112579
115 1 9.9952 14.8676 1.8229 -3.54099 0.000723015
116 1 12.4878 11.6883 -3.5996 -3.54015 3.249e-05
117 1 12.1318 13.4545 -1.7921 -3.54052 0.000193628
118 1 11.7794 15.2197 0.0153995 -3.54055 0.000310618
119 1 11.4336 16.9831 1.8229 -3.54006 0.000177121
120 1 13.9146 13.808 -3.5996 -3.54033 0.000101966
121 1 13.565 15.5716 -1.7921 -3.54013 6.52469e-05
122 1 13.2199 17.3346 0.0153996 -3.53981 0.000140747
123 1 15.3488 15.9247 -3.5996 -3.53996 5.43719e-05
124 1 15.002 17.6891 -1.7921 -3.53984 0.000155935
125 1 16.7806 18.0453 -3.5996 -3.53995 0.000113466
126 1 0.703544 -10.9003 -3.5996 -3.46143 2.89945
127 1 0.42069 -9.1318 -1.7921 -3.30211 8.24334
128 1 2.06838 -8.79642 -3.5996 -3.49368 0.343422
129 1 1.61265 -7.0396 -1.7921 -3.48647 0.32639
130 1 1.15856 -5.39327 0.0153977 -3.53032 0.133942
131 1 0.842543 -3.64661 1.8229 -3.54834 0.0623332
132 1 3.3962 -6.69496 -3.5996 -3.52794 0.0598949
133 1 3.00943 -4.96513 -1.7921 -3.52703 0.0264462
134 1 2.62349 -3.24857 0.0153978 -3.54329 0.0182931
135 1 2.28424 -1.4932 1.8229 -3.53424 0.0172629
136 1 4.79502 -4.6001 -3.5996 -3.53475 0.0126526
137 1 4.42078 -2.85387 -1.7921 -3.53625 0.0049001
138 1 4.04162 -1.09984 0.0153985 -3.54269 0.00252179
139 1 3.66445 0.669771 1.8229 -3.54096 0.00301565
140 1 6.19115 -2.48075 -3.5996 -3.53812 0.00315234
141 1 5.81234 -0.718687 -1.7921 -3.54055 0.000856524
142 1 5.43676 1.042 0.0153986 -3.54143 0.000417605
143 1 5.07119 2.80316 1.8229 -3.53862 0.000683023
144 1 7.58338 -0.352337 -3.5996 -3.53967 0.00100727
145 1 7.21267 1.41163 -1.7921 -3.53966 0.000353376
146 1 6.84285 3.17637 0.0153986 -3.53942 0.000503004
147 1 6.46939 4.94642 1.8229 -3.53901 0.000595819
148 1 8.98259 1.77698 -3.5996 -3.53937 0.000447483
149 1 8.61042 3.54697 -1.7921 -3.5397 0.000259154
150 1 8.23386 5.31894 0.0153987 -3.54055 0.000695152
151 1 7.85666 7.09027 1.8229 -3.54129 0.00247038
152 1 10.3777 3.91073 -3.5996 -3.54015 0.000409906
153 1 10.0057 5.68145 -1.7921 -3.54065 0.000861686
154 1 9.63798 7.44801 0.0153987 -3.54049 0.000835396
155 1 9.27898 9.21016 1.8229 -3.53957 0.000204986
156 1 11.7825 6.03722 -3.5996 -3.54028 0.000437249
157 1 11.4211 7.80281 -1.7921 -3.53991 0.000168719
158 1 11.0639 9.56633 0.0153994 -3.53954 7.39454e-05
159 1 10.7081 11.3309 1.8229 -3.5397 7.93342e-05
160 1 13.2019 8.1567 -3.5996 -3.53983 6.85809e-05
161 1 12.8447 9.92239 -1.7921 -3.53984 3.15039e-05
162 1 12.4878 11.6883 0.0153995 -3.54015 3.249e-05
163 1 12.1318 13.4545 1.8229 -3.54052 0.000193628
164 1 14.6239 10.2768 -3.5996 -3.54009 4.09108e-05
165 1 14.2681 12.0431 -1.7921 -3.54028 7.39007e-05
166 1 13.9146 13.808 0.0153996 -3.54033 0.000101966
167 1 13.565 15.5716 1.8229 -3.54013 6.52469e-05
168 1 16.0489 12.3958 -3.5996 -3.54022 5.1633e-05
169 1 15.6975 14.1607 -1.7921 -3.54013 3.36928e-05
170 1 15.3488 15.9247 0.0153997 -3.53996 5.43719e-05
171 1 15.002 17.6891 1.8229 -3.53984 0.000155935
172 1 17.4787 14.5136 -3.5996 -3.54004 3.20004e-05
173 1 17.1294 16.279 -1.7921 -3.53996 7.15875e-05
174 1 16.7806 18.0453 0.0153998 -3.53995 0.000113466
175 1 18.9072 16.6342 -3.5996 -3.54002 6.27082e-05
176 1 18.5564 18.4022 -1.7921 -3.54005 6.7282e-05
177 1 1.00761 -14.5434 -3.5996 -3.48595 0.457917
178 1 0.895486 -12.801 -1.7921 -3.52279 0.469204
179 1 0.703544 -10.9003 0.0153976 -3.46143 2.89945
180 1 0.42069 -9.1318 1.8229 -3.30098 8.24334
181 1 2.65892 -12.464 -3.5996 -3.54285 0.125394
182 1 2.40208 -10.6633 -1.7921 -3.53079 0.0850044
183 1 2.06838 -8.79642 0.0153978 -3.49368 0.343377
184 1 1.61265 -7.0396 1.8229 -3.48709 0.32639
185 1 4.11266 -10.3086 -3.5996 -3.5448 0.0201107
186 1 3.76454 -8.49307 -1.7921 -3.54076 0.01375
187 1 3.3962 -6.69496 0.0153978 -3.52794 0.0598949
188 1 3.00943 -4.96513 1.8229 -3.52714 0.0264462
189 1 5.50491 -8.1585 -3.5996 -3.54387 0.00276178
190 1 5.15592 -6.37095 -1.7921 -3.53942 0.00420668
191 1 4.79502 -4.6001 0.0153986 -3.53475 0.0126526
192 1 4.42078 -2.85387 1.8229 -3.53625 0.0049001
193 1 6.91408 -6.03074 -3.5996 -3.54062 0.000287374
194 1 6.55929 -4.25173 -1.7921 -3.53858 0.00232688
195 1 6.19115 -2.48075 0.0153986 -3.53812 0.00315234
196 1 5.81234 -0.718687 1.8229 -3.54055 0.000856524
197 1 8.31741 -3.9008 -3.5996 -3.54007 0.000293178
198 1 7.95349 -2.12287 -1.7921 -3.53973 0.000993934
199 1 7.58338 -0.352337 0.0153986 -3.53967 0.00100727
200 1 7.21267 1.41163 1.8229 -3.53966 0.000353376
201 1 9.71542 -1.7691 -3.5996 -3.54017 0.000223664
202 1 9.35078 0.00598678 -1.7921 -3.53962 0.000466226
203 1 8.98259 1.77698 0.0153987 -3.53937 0.000447483
204 1 8.61042 3.54697 1.8229 -3.5397 0.000259154
205 1 11.1152 0.361899 -3.5996 -3.53984 0.000161621
206 1 10.7485 2.13735 -1.7921 -3.53975 0.000260746
207 1 10.3777 3.91073 0.0153994 -3.54015 0.000409906
208 1 10.0057 5.68145 1.8229 -3.54065 0.000861686
209 1 12.5144 2.49348 -3.5996 -3.54015 0.00020899
210 1 12.1479 4.26745 -1.7921 -3.54031 0.000419655
211 1 11.7825 6.03722 0.0153995 -3.54028 0.000437249
212 1 11.4211 7.80281 1.8229 -3.53991 0.000168719
213 1 13.9206 4.61993 -3.5996 -3.54026 0.000230277
214 1 13.5602 6.38979 -1.7921 -3.54004 0.000157877
215 1 13.2019 8.1567 0.0153996 -3.53983 6.85809e-05
216 1 12.8447 9.92239 1.8229 -3.53984 3.15039e-05
217 1 15.337 6.74117 -3.5996 -3.54003 6.32619e-05
218 1 14.9803 8.50965 -1.7921 -3.53997 4.5742e-05
219 1 14.6239 10.2768 0.0153997 -3.54009 4.09108e-05
220 1 14.2681 12.0431 1.8229 -3.54028 7.39007e-05
221 1 16.7576 8.86152 -3.5996 -3.54012 3.75358e-05
222 1 16.4026 10.6295 -1.7921 -3.54019 4.87604e-05
223 1 16.0489 12.3958 0.0153997 -3.54022 5.1633e-05
224 1 15.6975 14.1607 1.8229 -3.54013 3.36928e-05
225 1 18.1812 10.981 -3.5996 -3.5402 3.19536e-05
226 1 17.8292 12.7479 -1.7921 -3.54014 2.63134e-05
227 1 17.4787 14.5136 0.0153999 -3.54004 3.20004e-05
228 1 17.1294 16.279 1.8229 -3.53996 7.15875e-05
229 1 19.6079 13.0999 -3.5996 -3.54011 2.15866e-05
230 1 19.2575 14.867 -1.7921 -3.54004 4.02994e-05
231 1 18.9072 16.6342 0.0154 -3.54002 6.27082e-05
232 1 18.5564 18.4022 1.8229 -3.54005 6.7282e-05
233 1 21.034 15.2211 -3.5996 -3.54008 3.72203e-05
234 1 20.6826 16.9898 -1.7921 -3.54008 4.38362e-05
235 1 22.4564 17.3455 -3.5996 -3.54013 2.78396e-05
236 1 1.89481 -17.9257 -3.5996 -3.45322 0.62445
237 1 1.37655 -16.1513 -1.7921 -3.44052 0.682173
238 1 1.00761 -14.5434 0.0153977 -3.48595 0.457917
239 1 0.895486 -12.801 1.8229 -3.52279 0.469204
240 1 3.26065 -15.8765 -3.5996 -3.51755 0.0898433
241 1 2.95929 -14.1851 -1.7921 -3.50895 0.0662755
242 1 2.65892 -12.464 0.0153978 -3.54285 0.125394
243 1 2.40208 -10.6633 1.8229 -3.53085 0.0850044
244 1 4.77631 -13.8432 -3.5996 -3.53071 0.0199845
245 1 4.45188 -12.0949 -1.7921 -3.53576 0.0189365
246 1 4.11266 -10.3086 0.0153985 -3.5448 0.0201107
247 1 3.76454 -8.49307 1.8229 -3.5408 0.01375
248 1 6.21426 -11.7285 -3.5996 -3.53828 0.00262447
249 1 5.85886 -9.94781 -1.7921 -3.54257 0.00179055
250 1 5.50491 -8.1585 0.0153986 -3.54387 0.00276178
251 1 5.15592 -6.37095 1.8229 -3.53942 0.00420668
252 1 7.61765 -9.59236 -3.5996 -3.54071 0.000146266
253 1 7.26465 -7.81225 -1.7921 -3.54128 0.000314033
254 1 6.91408 -6.03074 0.0153986 -3.54062 0.000287374
255 1 6.55929 -4.25173 1.8229 -3.53858 0.00232688
256 1 9.02756 -7.46139 -3.5996 -3.54017 2.62027e-05
257 1 8.67429 -5.68157 -1.7921 -3.54028 0.000119536
258 1 8.31741 -3.9008 0.0153987 -3.54007 0.000293178
259 1 7.95349 -2.12287 1.8229 -3.53973 0.000993934
260 1 10.435 -5.32872 -3.5996 -3.54016 4.06449e-05
261 1 10.0768 -3.54819 -1.7921 -3.54036 5.27859e-05
262 1 9.71542 -1.7691 0.0153987 -3.54017 0.000223664
263 1 9.35078 0.00598678 1.8229 -3.53962 0.000466226
264 1 11.8383 -3.19489 -3.5996 -3.54026 1.8721e-05
265 1 11.4781 -1.41565 -1.7921 -3.54013 5.34886e-05
266 1 11.1152 0.361899 0.0153994 -3.53984 0.000161621
267 1 10.7485 2.13735 1.8229 -3.53975 0.000260746
268 1 13.2414 -1.06188 -3.5996 -3.54012 2.30413e-05
269 1 12.8792 0.716592 -1.7921 -3.54008 7.21775e-05
270 1 12.5144 2.49348 0.0153995 -3.54015 0.00020899
271 1 12.1479 4.26745 1.8229 -3.54031 0.000419655
272 1 14.6447 1.06998 -3.5996 -3.54025 7.64289e-05
273 1 14.2826 2.84644 -1.7921 -3.54031 0.000174117
274 1 13.9206 4.61993 0.0153996 -3.54026 0.000230277
275 1 13.5602 6.38979 1.8229 -3.54004 0.000157877
276 1 16.053 3.19764 -3.5996 -3.5403 0.000103669
277 1 15.6945 4.97068 -1.7921 -3.54018 9.23698e-05
278 1 15.337 6.74117 0.0153997 -3.54003 6.32619e-05
279 1 14.9803 8.50965 1.8229 -3.53997 4.5742e-05
280 1 17.4686 5.321 -3.5996 -3.54017 3.71517e-05
281 1 17.1129 7.09205 -1.7921 -3.54011 3.25725e-05
282 1 16.7576 8.86152 0.0153998 -3.54012 3.75358e-05
283 1 16.4026 10.6295 1.8229 -3.54019 4.87604e-05
284 1 18.8884 7.44266 -3.5996 -3.54019 2.10959e-05
285 1 18.5344 9.21258 -1.7921 -3.5402 2.83553e-05
286 1 18.1812 10.981 0.0153999 -3.5402 3.19536e-05
287 1 17.8292 12.7479 1.8229 -3.54014 2.63134e-05
288 1 20.3111 9.56333 -3.5996 -3.54022 1.55539e-05
289 1 19.9591 11.3322 -1.7921 -3.54018 1.62168e-05
290 1 19.6079 13.0999 0.0154007 -3.54011 2.15866e-05
291 1 19.2575 14.867 1.8229 -3.54004 4.02994e-05
292 1 21.7359 11.6837 -3.5996 -3.54016 1.13709e-05
293 1 21.385 13.4525 -1.7921 -3.54011 2.27823e-05
294 1 21.034 15.2211 0.0154008 -3.54008 3.72203e-05
295 1 20.6826 16.9898 1.8229 -3.54008 4.38362e-05
296 1 23.1604 13.8057 -3.5996 -3.54013 2.09412e-05
297 1 22.8087 15.5755 -1.7921 -3.54012 2.78693e-05
298 1 22.4564 17.3455 0.0154009 -3.54013 2.78396e-05
299 1 24.5821 15.9302 -3.5996 -3.54015 1.86744e-05
300 1 24.2291 17.7013 -1.7921 -3.54016 1.70237e-05
301 1 26.0009 18.0569 -3.5996 -3.54018 1.01881e-05
302 1 1.89481 -17.9257 0.0153978 -3.45322 0.62445
303 1 1.37655 -16.1513 1.8229 -3.44052 0.682173
304 1 3.60372 -17.6574 -1.7921 -3.54153 0.0697686
305 1 3.26065 -15.8765 0.0153978 -3.51755 0.0898433
306 1 2.95929 -14.1851 1.8229 -3.50895 0.0662755
307 1 5.38556 -17.3621 -3.5996 -3.54418 0.0125323
308 1 5.08201 -15.5964 -1.7921 -3.53554 0.00810029
309 1 4.77631 -13.8432 0.0153986 -3.53071 0.0199845
310 1 4.45188 -12.0949 1.8229 -3.53576 0.0189365
311 1 6.87207 -15.2765 -3.5996 -3.5385 0.00441784
312 1 6.5537 -13.5048 -1.7921 -3.5369 0.00649525
313 1 6.21426 -11.7285 0.0153986 -3.53828 0.00262447
314 1 5.85886 -9.94781 1.8229 -3.54257 0.00179055
315 1 8.31616 -13.1569 -3.5996 -3.53954 0.00147993
316 1 7.97106 -11.3741 -1.7921 -3.53991 0.000290835
317 1 7.61765 -9.59236 0.0153986 -3.54071 0.000146266
318 1 7.26465 -7.81225 1.8229 -3.54128 0.000314033
319 1 9.73051 -11.0224 -3.5996 -3.54044 6.39129e-05
320 1 9.37977 -9.24107 -1.7921 -3.54018 1.75211e-05
321 1 9.02756 -7.46139 0.0153987 -3.54017 2.62027e-05
322 1 8.67429 -5.68157 1.8229 -3.54028 0.000119536
323 1 11.1426 -8.88926 -3.5996 -3.54014 2.60618e-05
324 1 10.7901 -7.10905 -1.7921 -3.54 3.6292e-05
325 1 10.435 -5.32872 0.0153994 -3.54016 4.06449e-05
326 1 10.0768 -3.54819 1.8229 -3.54036 5.27859e-05
327 1 12.5525 -6.75549 -3.5996 -3.54011 2.83895e-05
328 1 12.1965 -4.97506 -1.7921 -3.54018 1.77325e-05
329 1 11.8383 -3.19489 0.0153995 -3.54026 1.8721e-05
330 1 11.4781 -1.41565 1.8229 -3.54013 5.34886e-05
331 1 13.9593 -4.621 -3.5996 -3.5402 1.29447e-05
332 1 13.6012 -2.8412 -1.7921 -3.54017 1.13659e-05
333 1 13.2414 -1.06188 0.0153996 -3.54012 2.30413e-05
334 1 12.8792 0.716592 1.8229 -3.54008 7.21775e-05
335 1 15.3652 -2.48722 -3.5996 -3.54018 1.22952e-05
336 1 15.0057 -0.708231 -1.7921 -3.54019 2.57118e-05
337 1 14.6447 1.06998 0.0153997 -3.54025 7.64289e-05
338 1 14.2826 2.84644 1.8229 -3.54031 0.000174117
339 1 16.7718 -0.355048 -3.5996 -3.54027 3.88608e-05
340 1 16.4123 1.42216 -1.7921 -3.54031 7.55865e-05
341 1 16.053 3.19764 0.0153997 -3.5403 0.000103669
342 1 15.6945 4.97068 1.8229 -3.54018 9.23698e-05
343 1 18.1821 1.77366 -3.5996 -3.5403 5.36533e-05
344 1 17.825 3.54821 -1.7921 -3.54025 4.9732e-05
345 1 17.4686 5.321 0.0153999 -3.54017 3.71517e-05
346 1 17.1129 7.09205 1.8229 -3.54011 3.25725e-05
347 1 19.5978 3.89879 -3.5996 -3.54023 2.41539e-05
348 1 19.2429 5.67137 -1.7921 -3.54019 1.89154e-05
349 1 18.8884 7.44266 0.0154007 -3.54019 2.10959e-05
350 1 18.5344 9.21258 1.8229 -3.5402 2.83553e-05
351 1 21.0172 6.02194 -3.5996 -3.54023 1.19051e-05
352 1 20.6639 7.79322 -1.7921 -3.54023 1.33979e-05
353 1 20.3111 9.56333 0.0154008 -3.54022 1.55539e-05
354 1 19.9591 11.3322 1.8229 -3.54018 1.62168e-05
355 1 22.4393 8.14399 -3.5996 -3.54023 6.68618e-06
356 1 22.0873 9.91429 -1.7921 -3.5402 7.10662e-06
357 1 21.7359 11.6837 0.0154009 -3.54016 1.13709e-05
358 1 21.385 13.4525 1.8229 -3.54011 2.27823e-05
359 1 23.8629 10.2658 -3.5996 -3.54019 4.91724e-06
360 1 23.5116 12.0359 -1.7921 -3.54016 1.14205e-05
361 1 23.1604 13.8057 0.015401 -3.54013 2.09412e-05
362 1 22.8087 15.5755 1.8229 -3.54012 2.78693e-05
363 1 25.2862 12.3887 -3.5996 -3.54016 1.11713e-05
364 1 24.9344 14.1594 -1.7921 -3.54015 1.65071e-05
365 1 24.5821 15.9302 0.0154011 -3.54015 1.86744e-05
366 1 24.2291 17.7013 1.8229 -3.54016 1.70237e-05
367 1 26.7075 14.5135 -3.5996 -3.54017 1.17608e-05
368 1 26.3546 16.2851 -1.7921 -3.54017 1.17791e-05
369 1 26.0009 18.0569 0.0154012 -3.54018 1.01881e-05
370 1 28.1264 16.6401 -3.5996 -3.54019 7.13174e-06
371 1 27.7723 18.4125 -1.7921 -3.54019 5.93853e-06
372 1 3.60372 -17.6574 1.8229 -3.54153 0.0697686
373 1 5.38556 -17.3621 0.0153986 -3.54418 0.0125323
374 1 5.08201 -15.5964 1.8229 -3.53554 0.00810029
375 1 7.18472 -17.0434 -1.7921 -3.54018 0.00222935
376 1 6.87207 -15.2765 0.0153986 -3.5385 0.00441784
377 1 6.5537 -13.5048 1.8229 -3.5369 0.00649525
378 1 8.97605 -16.7044 -3.5996 -3.53916 0.00158777
379 1 8.64947 -14.9351 -1.7921 -3.53924 0.00267816
380 1 8.31616 -13.1569 0.0153987 -3.53954 0.00147993
381 1 7.97106 -11.3741 1.8229 -3.53991 0.000290835
382 1 10.4206 -14.5826 -3.5996 -3.53984 0.00100431
383 1 10.078 -12.8043 -1.7921 -3.54037 0.000385558
384 1 9.73051 -11.0224 0.0153987 -3.54044 6.39129e-05
385 1 9.37977 -9.24107 1.8229 -3.54018 1.75211e-05
386 1 11.8425 -12.4491 -3.5996 -3.54044 0.000158243
387 1 11.4933 -10.6696 -1.7921 -3.5404 6.49269e-05
388 1 11.1426 -8.88926 0.0153994 -3.54014 2.60618e-05
389 1 10.7901 -7.10905 1.8229 -3.54 3.6292e-05
390 1 13.2581 -10.3148 -3.5996 -3.5403 6.50977e-05
391 1 12.9062 -8.5356 -1.7921 -3.54018 4.36393e-05
392 1 12.5525 -6.75549 0.0153995 -3.54011 2.83895e-05
393 1 12.1965 -4.97506 1.8229 -3.54018 1.77325e-05
394 1 14.6706 -8.18026 -3.5996 -3.54022 3.9783e-05
395 1 14.3157 -6.40089 -1.7921 -3.5402 2.33612e-05
396 1 13.9593 -4.621 0.0153996 -3.5402 1.29447e-05
397 1 13.6012 -2.8412 1.8229 -3.54017 1.13659e-05
398 1 16.0802 -6.0455 -3.5996 -3.54023 2.02148e-05
399 1 15.7233 -4.26646 -1.7921 -3.54021 1.3218e-05
400 1 15.3652 -2.48722 0.0153997 -3.54018 1.22952e-05
401 1 15.0057 -0.708231 1.8229 -3.54019 2.57118e-05
402 1 17.4887 -3.91153 -3.5996 -3.54023 1.51044e-05
403 1 17.1307 -2.13317 -1.7921 -3.54023 1.942e-05
404 1 16.7718 -0.355048 0.0153998 -3.54027 3.88608e-05
405 1 16.4123 1.42216 1.8229 -3.54031 7.55865e-05
406 1 18.8978 -1.77925 -3.5996 -3.54028 2.68389e-05
407 1 18.5399 -0.00233882 -1.7921 -3.5403 4.19489e-05
408 1 18.1821 1.77366 0.0153999 -3.5403 5.36533e-05
409 1 17.825 3.54821 1.8229 -3.54025 4.9732e-05
410 1 20.3098 0.350112 -3.5996 -3.5403 3.36841e-05
411 1 19.9534 2.12499 -1.7921 -3.54027 3.19012e-05
412 1 19.5978 3.89879 0.0154007 -3.54023 2.41539e-05
413 1 19.2429 5.67137 1.8229 -3.54019 1.89154e-05
414 1 21.7258 2.47647 -3.5996 -3.54026 1.87982e-05
415 1 21.3712 4.24964 -1.7921 -3.54023 1.38512e-05
416 1 21.0172 6.02194 0.0154008 -3.54023 1.19051e-05
417 1 20.6639 7.79322 1.8229 -3.54023 1.33979e-05
418 1 23.145 4.60085 -3.5996 -3.54024 8.86052e-06
419 1 22.7918 6.37281 -1.7921 -3.54024 7.28908e-06
420 1 22.4393 8.14399 0.0154009 -3.54023 6.68618e-06
421 1 22.0873 9.91429 1.8229 -3.5402 7.10662e-06
422 1 24.5665 6.72412 -3.5996 -3.54024 3.70398e-06
423 1 24.2145 8.49524 -1.7921 -3.54022 2.97448e-06
424 1 23.8629 10.2658 0.015401 -3.54019 4.91724e-06
425 1 23.5116 12.0359 1.8229 -3.54016 1.14205e-05
426 1 25.9893 8.84711 -3.5996 -3.54021 2.3525e-06
427 1 25.6377 10.618 -1.7921 -3.54019 5.57099e-06
428 1 25.2862 12.3887 0.0154012 -3.54016 1.11713e-05
429 1 24.9344 14.1594 1.8229 -3.54015 1.65071e-05
430 1 27.4118 10.9709 -3.5996 -3.54019 6.21474e-06
431 1 27.0598 12.7421 -1.7921 -3.54018 9.66396e-06
432 1 26.7075 14.5135 0.0154013 -3.54017 1.17608e-05
433 1 26.3546 16.2851 1.8229 -3.54017 1.17791e-05
434 1 28.8327 13.096 -3.5996 -3.54019 7.51216e-06
435 1 28.4799 14.868 -1.7921 -3.54019 7.80545e-06
436 1 28.1264 16.6401 0.0154014 -3.54019 7.13174e-06
437 1 27.7723 18.4125 1.8229 -3.54019 5.93853e-06
438 1 30.2517 15.2227 -3.5996 -3.5402 4.88367e-06
439 1 29.8978 16.9952 -1.7921 -3.5402 4.21345e-06
440 1 31.669 17.3504 -3.5996 -3.54021 2.53222e-06
441 1 7.18472 -17.0434 1.8229 -3.54018 0.00222935
442 1 8.97605 -16.7044 0.0153987 -3.53916 0.00158777
443 1 8.64947 -14.9351 1.8229 -3.53924 0.00267816
444 1 11.0945 -18.12 -3.5996 -3.53947 0.000432349
445 1 10.7584 -16.3543 -1.7921 -3.53936 0.00105104
446 1 10.4206 -14.5826 0.0153987 -3.53984 0.00100431
447 1 10.078 -12.8043 1.8229 -3.54037 0.000385558
448 1 12.5348 -15.9988 -3.5996 -3.53977 0.000483244
449 1 12.19 -14.2261 -1.7921 -3.54015 0.000323855
450 1 11.8425 -12.4491 0.0153995 -3.54044 0.000158243
451 1 11.4933 -10.6696 1.8229 -3.5404 6.49269e-05
452 1 13.9594 -13.8681 -3.5996 -3.54023 0.000118137
453 1 13.6091 -12.0926 -1.7921 -3.54033 8.48854e-05
454 1 13.2581 -10.3148 0.0153996 -3.5403 6.50977e-05
455 1 12.9062 -8.5356 1.8229 -3.54018 4.36393e-05
456 1 15.377 -11.735 -3.5996 -3.54025 5.04179e-05
457 1 15.0242 -9.95843 -1.7921 -3.54024 4.9986e-05
458 1 14.6706 -8.18026 0.0153997 -3.54022 3.9783e-05
459 1 14.3157 -6.40089 1.8229 -3.5402 2.33612e-05
460 1 16.791 -9.60108 -3.5996 -3.54023 3.16482e-05
461 1 16.436 -7.82387 -1.7921 -3.54024 2.82052e-05
462 1 16.0802 -6.0455 0.0153997 -3.54023 2.02148e-05
463 1 15.7233 -4.26646 1.8229 -3.54021 1.3218e-05
464 1 18.2026 -7.46696 -3.5996 -3.54024 1.80609e-05
465 1 17.846 -5.68959 -1.7921 -3.54024 1.65682e-05
466 1 17.4887 -3.91153 0.0153999 -3.54023 1.51044e-05
467 1 17.1307 -2.13317 1.8229 -3.54023 1.942e-05
468 1 19.6131 -5.33348 -3.5996 -3.54024 1.37872e-05
469 1 19.2556 -3.55647 -1.7921 -3.54026 1.77825e-05
470 1 18.8978 -1.77925 0.0154007 -3.54028 2.68389e-05
471 1 18.5399 -0.00233882 1.8229 -3.5403 4.19489e-05
472 1 21.024 -3.20154 -3.5996 -3.54027 1.94544e-05
473 1 20.6667 -1.42554 -1.7921 -3.54029 2.77988e-05
474 1 20.3098 0.350112 0.0154008 -3.5403 3.36841e-05
475 1 19.9534 2.12499 1.8229 -3.54027 3.19012e-05
476 1 22.4371 -1.07199 -3.5996 -3.54028 2.29266e-05
477 1 22.0811 0.702534 -1.7921 -3.54028 2.30899e-05
478 1 21.7258 2.47647 0.0154009 -3.54026 1.87982e-05
479 1 21.3712 4.24964 1.8229 -3.54023 1.38512e-05
480 1 23.8534 1.05507 -3.5996 -3.54026 1.49657e-05
481 1 23.4989 2.82823 -1.7921 -3.54025 1.17468e-05
482 1 23.145 4.60085 0.015401 -3.54024 8.86052e-06
483 1 22.7918 6.37281 1.8229 -3.54024 7.28908e-06
484 1 25.2725 3.1803 -3.5996 -3.54025 7.36913e-06
485 1 24.9192 4.95245 -1.7921 -3.54024 5.36019e-06
486 1 24.5665 6.72412 0.0154011 -3.54024 3.70398e-06
487 1 24.2145 8.49524 1.8229 -3.54022 2.97448e-06
488 1 26.6935 5.30449 -3.5996 -3.54024 2.8234e-06
489 1 26.3411 7.07596 -1.7921 -3.54023 1.84086e-06
490 1 25.9893 8.84711 0.0154012 -3.54021 2.3525e-06
491 1 25.6377 10.618 1.8229 -3.54019 5.57099e-06
492 1 28.1155 7.42838 -3.5996 -3.54021 1.52605e-06
493 1 27.7636 9.19964 -1.7921 -3.5402 3.08928e-06
494 1 27.4118 10.9709 0.0154013 -3.54019 6.21474e-06
495 1 27.0598 12.7421 1.8229 -3.54018 9.66396e-06
496 1 29.5374 9.55279 -3.5996 -3.5402 3.81394e-06
497 1 29.1852 11.3243 -1.7921 -3.54019 6.02326e-06
498 1 28.8327 13.096 0.0154014 -3.54019 7.51216e-06
499 1 28.4799 14.868 1.8229 -3.54019 7.80545e-06
500 1 30.9581 11.6783 -3.5996 -3.5402 5.10911e-06
501 1 30.6051 13.4504 -1.7921 -3.5402 5.28629e-06
502 1 30.2517 15.2227 0.0154015 -3.5402 4.88367e-06
503 1 29.8978 16.9952 1.8229 -3.5402 4.21345e-06
504 1 32.3771 13.805 -3.5996 -3.5402 3.33879e-06
505 1 32.0233 15.5776 -1.7921 -3.5402 2.97567e-06
506 1 31.669 17.3504 0.0154016 -3.54021 2.53222e-06
507 1 33.7947 15.9325 -3.5996 -3.54021 1.99403e-06
508 1 33.4401 17.7055 -1.7921 -3.54022 1.60164e-06
509 1 35.2112 18.0606 -3.5996 -3.54023 9.26753e-07
510 1 11.0945 -18.12 0.0153994 -3.53947 0.000432349
511 1 10.7584 -16.3543 1.8229 -3.53936 0.00105104
512 1 12.8775 -17.7668 -1.7921 -3.53963 0.000390309
513 1 12.5348 -15.9988 0.0153995 -3.53977 0.000483244
514 1 12.19 -14.2261 1.8229 -3.54015 0.000323855
515 1 14.6557 -17.4104 -3.5996 -3.53987 0.000229754
516 1 14.3084 -15.6409 -1.7921 -3.54004 0.000190234
517 1 13.9594 -13.8681 0.0153996 -3.54023 0.000118137
518 1 13.6091 -12.0926 1.8229 -3.54033 8.48854e-05
519 1 16.0807 -15.2822 -3.5996 -3.54015 7.69421e-05
520 1 15.7292 -13.5096 -1.7921 -3.54023 5.406e-05
521 1 15.377 -11.735 0.0153997 -3.54025 5.04179e-05
522 1 15.0242 -9.95843 1.8229 -3.54024 4.9986e-05
523 1 17.4992 -13.151 -3.5996 -3.54021 2.86994e-05
524 1 17.1454 -11.3768 -1.7921 -3.54022 2.98846e-05
525 1 16.791 -9.60108 0.0153998 -3.54023 3.16482e-05
526 1 16.436 -7.82387 1.8229 -3.54024 2.82052e-05
527 1 18.9141 -11.0185 -3.5996 -3.54021 1.63545e-05
528 1 18.5586 -9.24332 -1.7921 -3.54022 1.77727e-05
529 1 18.2026 -7.46696 0.0153999 -3.54024 1.80609e-05
530 1 17.846 -5.68959 1.8229 -3.54024 1.65682e-05
531 1 20.3269 -8.88556 -3.5996 -3.54022 9.33689e-06
532 1 19.9702 -7.10992 -1.7921 -3.54024 1.13749e-05
533 1 19.6131 -5.33348 0.0154007 -3.54024 1.37872e-05
534 1 19.2556 -3.55647 1.8229 -3.54026 1.77825e-05
535 1 21.7387 -6.75306 -3.5996 -3.54024 8.00451e-06
536 1 21.3813 -4.97748 -1.7921 -3.54025 1.26708e-05
537 1 21.024 -3.20154 0.0154008 -3.54027 1.94544e-05
538 1 20.6667 -1.42554 1.8229 -3.54029 2.77988e-05
539 1 23.1508 -4.62179 -3.5996 -3.54026 1.21647e-05
540 1 22.7938 -2.84685 -1.7921 -3.54028 1.8302e-05
541 1 22.4371 -1.07199 0.0154009 -3.54028 2.29266e-05
542 1 22.0811 0.702534 1.8229 -3.54028 2.30899e-05
543 1 24.5648 -2.49243 -3.5996 -3.54027 1.49162e-05
544 1 24.2087 -0.718531 -1.7921 -3.54027 1.64686e-05
545 1 23.8534 1.05507 0.015401 -3.54026 1.49657e-05
546 1 23.4989 2.82823 1.8229 -3.54025 1.17468e-05
547 1 25.9812 -0.365111 -3.5996 -3.54025 1.09802e-05
548 1 25.6265 1.40776 -1.7921 -3.54025 9.47957e-06
549 1 25.2725 3.1803 0.0154012 -3.54025 7.36913e-06
550 1 24.9192 4.95245 1.8229 -3.54024 5.36019e-06
551 1 27.4001 1.76063 -3.5996 -3.54024 5.68811e-06
552 1 27.0465 3.5327 -1.7921 -3.54024 4.2388e-06
553 1 26.6935 5.30449 0.0154013 -3.54024 2.8234e-06
554 1 26.3411 7.07596 1.8229 -3.54023 1.84086e-06
555 1 28.8206 3.88543 -3.5996 -3.54023 2.16389e-06
556 1 28.4678 5.65699 -1.7921 -3.54023 1.47685e-06
557 1 28.1155 7.42838 0.0154014 -3.54021 1.52605e-06
558 1 27.7636 9.19964 1.8229 -3.5402 3.08928e-06
559 1 30.242 6.00995 -3.5996 -3.54021 1.07638e-06
560 1 29.8896 7.78136 -1.7921 -3.54021 1.92769e-06
561 1 29.5374 9.55279 0.0154015 -3.5402 3.81394e-06
562 1 29.1852 11.3243 1.8229 -3.54019 6.02326e-06
563 1 31.6633 8.13483 -3.5996 -3.5402 2.43583e-06
564 1 31.3108 9.90646 -1.7921 -3.5402 4.06072e-06
565 1 30.9581 11.6783 0.0154016 -3.5402 5.10911e-06
566 1 30.6051 13.4504 1.8229 -3.5402 5.28629e-06
567 1 33.0837 10.2606 -3.5996 -3.54021 3.73224e-06
568 1 32.7305 12.0326 -1.7921 -3.5402 3.70532e-06
569 1 32.3771 13.805 0.0154016 -3.5402 3.33879e-06
570 1 32.0233 15.5776 1.8229 -3.5402 2.97567e-06
571 1 34.5026 12.3873 -3.5996 -3.5402 2.13997e-06
572 1 34.1488 14.1598 -1.7921 -3.5402 1.99832e-06
573 1 33.7947 15.9325 0.0154017 -3.54021 1.99403e-06
574 1 33.4401 17.7055 1.8229 -3.54022 1.60164e-06
575 1 35.9205 14.5147 -3.5996 -3.54021 1.56309e-06
576 1 35.566 16.2875 -1.7921 -3.54022 1.67311e-06
577 1 35.2112 18.0606 0.0154017 -3.54023 9.26753e-07
578 1 37.3373 16.6425 -3.5996 -3.54024 1.44286e-06
579 1 36.9822 18.4157 -1.7921 -3.54023 1.98977e-07
580 1 12.8775 -17.7668 1.8229 -3.53963 0.000390309
581 1 14.6557 -17.4104 0.0153997 -3.53987 0.000229754
582 1 14.3084 -15.6409 1.8229 -3.54004 0.000190234
583 1 16.4312 -17.0526 -1.7921 -3.54004 0.000110656
584 1 16.0807 -15.2822 0.0153997 -3.54015 7.69421e-05
585 1 15.7292 -13.5096 1.8229 -3.54023 5.406e-05
586 1 18.2049 -16.6944 -3.5996 -3.54012 5.21792e-05
587 1 17.8524 -14.9235 -1.7921 -3.54018 3.54405e-05