ITEM: TIMESTEP
0
ITEM: NUMBER OF ATOMS
2504
ITEM: BOX BOUNDS xy xz yz mm pp pp
-5.5498871899999997e+01 5.5498871899999997e+01 0.0000000000000000e+00
-1.8432957300000002e+01 1.8432957300000002e+01 0.0000000000000000e+00
-3.6150000000000002e+00 3.6150000000000002e+00 0.0000000000000000e+00
ITEM: ATOMS id type x y z c_eng c_csym
1 1 0.630326 16.7784 -3.59842 -3.43841 3.5102
2 1 0.292789 -18.2681 -1.79092 -3.27989 9.01093
3 1 0.977297 13.0576 -3.59842 -3.50365 0.290563
4 1 0.842544 14.8167 -1.79092 -3.50396 0.581694
5 1 0.630326 16.7784 0.0165823 -3.43841 3.5102
6 1 0.292789 -18.2681 1.82408 -3.27989 9.01093
7 1 2.56942 15.1838 -3.59842 -3.54016 0.118221
8 1 2.2811 17.0256 -1.79092 -3.51869 0.0863841
9 1 3.96677 17.3817 -3.59842 -3.5439 0.0307588
10 1 0.486581 7.39667 -3.59842 -3.52318 0.582533
11 1 0.145426 9.13916 -1.79092 -3.40108 1.69606
12 1 1.79132 9.59413 -3.59842 -3.51014 0.161319
13 1 1.31401 11.3632 -1.79092 -3.51216 0.266391
14 1 0.977297 13.0576 0.0165824 -3.50365 0.290563
15 1 0.842544 14.8167 1.82408 -3.50396 0.581694
16 1 3.17704 11.6919 -3.59842 -3.5271 0.0302654
17 1 2.8753 13.4086 -1.79092 -3.51739 0.0610598
18 1 2.56942 15.1838 0.0165824 -3.54016 0.118221
19 1 2.2811 17.0256 1.82408 -3.51869 0.0863841
20 1 4.67068 13.7823 -3.59842 -3.53365 0.0125936
21 1 4.32767 15.5585 -1.79092 -3.53776 0.016929
22 1 3.96677 17.3817 0.0165825 -3.5439 0.0307588
23 1 6.08241 15.9321 -3.59842 -3.54114 0.00342868
24 1 5.7206 17.7206 -1.79092 -3.54503 0.0157912
25 1 7.50873 18.0569 -3.59842 -3.54173 0.00402814
26 1 1.11645 3.78384 -3.59842 -3.53934 0.0727261
27 1 0.813825 5.57151 -1.79092 -3.54488 0.0322945
28 1 0.486581 7.39667 0.0165823 -3.52318 0.58243
29 1 0.145426 9.13916 1.82408 -3.40201 1.69606
30 1 2.56504 5.94584 -3.59842 -3.5412 0.0184802
31 1 2.22172 7.74305 -1.79092 -3.5245 0.0360724
32 1 1.79132 9.59413 0.0165824 -3.51014 0.161319
33 1 1.31401 11.3632 1.82408 -3.51218 0.266391
34 1 3.93443 8.13602 -3.59842 -3.54273 0.0129121
35 1 3.53739 9.93264 -1.79092 -3.5428 0.0464983
36 1 3.17704 11.6919 0.0165825 -3.5271 0.0302654
37 1 2.8753 13.4086 1.82408 -3.51739 0.0610598
38 1 5.33375 10.2689 -3.59842 -3.54149 0.00675949
39 1 5.00181 12.0235 -1.79092 -3.53442 0.00571883
40 1 4.67068 13.7823 0.0165832 -3.53365 0.0125936
41 1 4.32767 15.5585 1.82408 -3.53776 0.016929
42 1 6.79189 12.3777 -3.59842 -3.53784 0.0025713
43 1 6.44407 14.1489 -1.79092 -3.53802 0.00190977
44 1 6.08241 15.9321 0.0165833 -3.54114 0.00342868
45 1 5.7206 17.7206 1.82408 -3.54503 0.0157912
46 1 8.21397 14.5114 -3.59842 -3.54056 0.000487615
47 1 7.85585 16.2863 -1.79092 -3.54161 0.00298031
48 1 7.50873 18.0569 0.0165833 -3.54173 0.00402814
49 1 9.64238 16.6338 -3.59842 -3.5408 0.00107545
50 1 9.30385 18.3968 -1.79092 -3.53983 0.000613299
51 1 0.506172 -1.84115 -3.59842 -3.52786 0.399852
52 1 0.175609 -0.119062 -1.79092 -3.43709 1.02255
53 1 1.91229 0.290604 -3.59842 -3.52886 0.0559225
54 1 1.49904 2.04491 -1.79092 -3.52925 0.0539414
55 1 1.11645 3.78384 0.0165824 -3.53934 0.072623
56 1 0.813825 5.57151 1.82408 -3.54406 0.0322945
57 1 3.29046 2.43013 -3.59842 -3.5348 0.00444113
58 1 2.92478 4.17833 -1.79092 -3.53595 0.00567223
59 1 2.56504 5.94584 0.0165824 -3.5412 0.0184802
60 1 2.22172 7.74305 1.82408 -3.52464 0.0360724
61 1 4.7008 4.56594 -3.59842 -3.53734 0.00187251
62 1 4.32682 6.33709 -1.79092 -3.53779 0.00482416
63 1 3.93443 8.13602 0.0165825 -3.54273 0.0129121
64 1 3.53739 9.93264 1.82408 -3.5428 0.0464983
65 1 6.08213 6.72343 -3.59842 -3.54096 0.00237519
66 1 5.69707 8.50069 -1.79092 -3.54341 0.00986185
67 1 5.33375 10.2689 0.0165833 -3.54149 0.00675949
68 1 5.00181 12.0235 1.82408 -3.53442 0.00571883
69 1 7.48483 8.85614 -3.59842 -3.54085 0.00226493
70 1 7.13391 10.6155 -1.79092 -3.53892 0.000794793
71 1 6.79189 12.3777 0.0165833 -3.53784 0.0025713
72 1 6.44407 14.1489 1.82408 -3.53802 0.00190977
73 1 8.92288 10.9722 -3.59842 -3.53905 0.000460227
74 1 8.57076 12.7384 -1.79092 -3.53946 0.000473321
75 1 8.21397 14.5114 0.0165833 -3.54056 0.000487615
76 1 7.85585 16.2863 1.82408 -3.54161 0.00298031
77 1 10.3484 13.0982 -3.59842 -3.54037 0.00011875
78 1 9.9924 14.8669 -1.79092 -3.54098 0.000756347
79 1 9.64238 16.6338 0.0165834 -3.5408 0.00107545
80 1 9.30385 18.3968 1.82408 -3.53983 0.000613299
81 1 11.7774 15.219 -3.59842 -3.54054 0.000332267
82 1 11.4322 16.9818 -1.79092 -3.54005 0.000196553
83 1 13.2194 17.3332 -3.59842 -3.53978 0.000153809
84 1 1.16859 -5.39057 -3.59842 -3.53339 0.119519
85 1 0.83826 -3.6438 -1.79092 -3.54999 0.0509996
86 1 0.506172 -1.84115 0.0165823 -3.52786 0.399749
87 1 0.175609 -0.119062 1.82408 -3.4373 1.02255
88 1 2.6241 -3.24647 -3.59842 -3.54299 0.0149146
89 1 2.28301 -1.49645 -1.79092 -3.53431 0.0152945
90 1 1.91229 0.290604 0.0165824 -3.52886 0.055871
91 1 1.49904 2.04491 1.82408 -3.52959 0.0539414
92 1 4.04509 -1.10188 -3.59842 -3.54208 0.00221794
93 1 3.66764 0.664703 -1.79092 -3.54067 0.00181632
94 1 3.29046 2.43013 0.0165825 -3.5348 0.00444113
95 1 2.92478 4.17833 1.82408 -3.53608 0.00567223
96 1 5.43908 1.04094 -3.59842 -3.54129 0.000338011
97 1 5.07012 2.80202 -1.79092 -3.53894 0.000430394
98 1 4.7008 4.56594 0.0165832 -3.53734 0.00187251
99 1 4.32682 6.33709 1.82408 -3.53779 0.00482416
100 1 6.84165 3.17711 -3.59842 -3.53947 0.000419659
101 1 6.46653 4.94658 -1.79092 -3.53906 0.000543222
102 1 6.08213 6.72343 0.0165833 -3.54096 0.00237519
103 1 5.69707 8.50069 1.82408 -3.54341 0.00986185
104 1 8.23149 5.32006 -3.59842 -3.54052 0.000735049
105 1 7.8533 7.09089 -1.79092 -3.5413 0.0025293
106 1 7.48483 8.85614 0.0165833 -3.54085 0.00226493
107 1 7.13391 10.6155 1.82408 -3.53892 0.000794793
108 1 9.63511 7.4492 -3.59842 -3.54047 0.000880944
109 1 9.27547 9.21087 -1.79092 -3.53957 0.000218397
110 1 8.92288 10.9722 0.0165834 -3.53905 0.000460227
111 1 8.57076 12.7384 1.82408 -3.53946 0.000473321
112 1 11.0611 9.56726 -3.59842 -3.53953 7.33124e-05
113 1 10.7051 11.3313 -1.79092 -3.53969 7.53011e-05
114 1 10.3484 13.0982 0.0165834 -3.54037 0.00011875
115 1 9.9924 14.8669 1.82408 -3.54098 0.000756347
116 1 12.4856 11.6888 -3.59842 -3.54014 3.69784e-05
117 1 12.1296 13.4544 -1.79092 -3.54051 0.00020619
118 1 11.7774 15.219 0.0165842 -3.54054 0.000332267
119 1 11.4322 16.9818 1.82408 -3.54005 0.000196553
120 1 13.9132 13.8078 -3.59842 -3.54032 0.000110349
121 1 13.564 15.5708 -1.79092 -3.54012 7.22468e-05
122 1 13.2194 17.3332 0.0165842 -3.53978 0.000153809
123 1 15.3485 15.9238 -3.59842 -3.53994 6.04794e-05
124 1 15.0023 17.6876 -1.79092 -3.53981 0.000174268
125 1 16.7814 18.0439 -3.59842 -3.53993 0.000130293
126 1 0.708487 -10.897 -3.59842 -3.46247 2.84313
127 1 0.431223 -9.13145 -1.79092 -3.30212 8.18357
128 1 2.0813 -8.79836 -3.59842 -3.49531 0.326119
129 1 1.62908 -7.0409 -1.79092 -3.48946 0.307919
130 1 1.16859 -5.39057 0.0165824 -3.53339 0.119416
131 1 0.83826 -3.6438 1.82408 -3.54925 0.0509996
132 1 3.40545 -6.69356 -3.59842 -3.52844 0.0599417
133 1 3.01315 -4.96094 -1.79092 -3.52805 0.0268364
134 1 2.6241 -3.24647 0.0165824 -3.54299 0.0149146
135 1 2.28301 -1.49645 1.82408 -3.53451 0.0152945
136 1 4.79872 -4.59734 -3.59842 -3.53493 0.0131808
137 1 4.42396 -2.85242 -1.79092 -3.53599 0.00532721
138 1 4.04509 -1.10188 0.0165832 -3.54208 0.00221794
139 1 3.66764 0.664703 1.82408 -3.54073 0.00181632
140 1 6.19555 -2.47996 -3.59842 -3.53792 0.0035436
141 1 5.81654 -0.718977 -1.79092 -3.54022 0.000939573
142 1 5.43908 1.04094 0.0165833 -3.54129 0.000338011
143 1 5.07012 2.80202 1.82408 -3.53894 0.000430394
144 1 7.58658 -0.35136 -3.59842 -3.53958 0.00113627
145 1 7.21381 1.4127 -1.79092 -3.53967 0.000414565
146 1 6.84165 3.17711 0.0165833 -3.53947 0.000419659
147 1 6.46653 4.94658 1.82408 -3.53906 0.000543222
148 1 8.98308 1.77887 -3.59842 -3.53937 0.000498452
149 1 8.60936 3.54864 -1.79092 -3.53967 0.000291298
150 1 8.23149 5.32006 0.0165833 -3.54052 0.000735049
151 1 7.8533 7.09089 1.82408 -3.5413 0.0025293
152 1 10.3768 3.91278 -3.59842 -3.54011 0.000467066
153 1 10.0037 5.68314 -1.79092 -3.54061 0.000916102
154 1 9.63511 7.4492 0.0165834 -3.54047 0.000880944
155 1 9.27547 9.21087 1.82408 -3.53957 0.000218397
156 1 11.7808 6.03912 -3.59842 -3.54025 0.000478891
157 1 11.4188 7.80429 -1.79092 -3.53988 0.000190713
158 1 11.0611 9.56726 0.0165841 -3.53953 7.33124e-05
159 1 10.7051 11.3313 1.82408 -3.53969 7.53011e-05
160 1 13.2 8.1582 -3.59842 -3.53981 8.04543e-05
161 1 12.8426 9.9234 -1.79092 -3.53982 3.53936e-05
162 1 12.4856 11.6888 0.0165842 -3.54014 3.69784e-05
163 1 12.1296 13.4544 1.82408 -3.54051 0.00020619
164 1 14.6224 10.2778 -3.59842 -3.54007 4.82854e-05
165 1 14.2666 12.0435 -1.79092 -3.54026 8.15835e-05
166 1 13.9132 13.8078 0.0165843 -3.54032 0.000110349
167 1 13.564 15.5708 1.82408 -3.54012 7.22468e-05
168 1 16.0481 12.3961 -3.59842 -3.54021 5.76303e-05
169 1 15.6969 14.1604 -1.79092 -3.54012 3.7818e-05
170 1 15.3485 15.9238 0.0165844 -3.53994 6.04794e-05
171 1 15.0023 17.6876 1.82408 -3.53981 0.000174268
172 1 17.4787 14.5132 -3.59842 -3.54003 3.636e-05
173 1 17.1298 16.2781 -1.79092 -3.53994 8.0848e-05
174 1 16.7814 18.0439 0.0165845 -3.53993 0.000130293
175 1 18.908 16.6334 -3.59842 -3.54 7.21055e-05
176 1 18.5575 18.401 -1.79092 -3.54004 7.86599e-05
177 1 1.00603 -14.5356 -3.59842 -3.4866 0.456255
178 1 0.895275 -12.7934 -1.79092 -3.524 0.461147
179 1 0.708487 -10.897 0.0165823 -3.46247 2.84313
180 1 0.431223 -9.13145 1.82408 -3.30074 8.18357
181 1 2.66225 -12.4618 -3.59842 -3.54275 0.12586
182 1 2.40992 -10.663 -1.79092 -3.53116 0.0870263
183 1 2.0813 -8.79836 0.0165824 -3.49531 0.326068
184 1 1.62908 -7.0409 1.82408 -3.49008 0.307919
185 1 4.1216 -10.3101 -3.59842 -3.54446 0.020991
186 1 3.77543 -8.49402 -1.79092 -3.5404 0.0126431
187 1 3.40545 -6.69356 0.0165825 -3.52844 0.0599417
188 1 3.01315 -4.96094 1.82408 -3.52817 0.0268364
189 1 5.51247 -8.15834 -3.59842 -3.54379 0.00273391
190 1 5.16137 -6.36883 -1.79092 -3.53968 0.00446794
191 1 4.79872 -4.59734 0.0165832 -3.53493 0.0131808
192 1 4.42396 -2.85242 1.82408 -3.53599 0.00532721
193 1 6.91836 -6.02928 -3.59842 -3.54076 0.000272102
194 1 6.56335 -4.25017 -1.79092 -3.5386 0.00242839
195 1 6.19555 -2.47996 0.0165833 -3.53792 0.0035436
196 1 5.81654 -0.718977 1.82408 -3.54022 0.000939573
197 1 8.32146 -3.89994 -3.59842 -3.54 0.00032959
198 1 7.95757 -2.122 -1.79092 -3.5396 0.00108481
199 1 7.58658 -0.35136 0.0165833 -3.53958 0.00113627
200 1 7.21381 1.4127 1.82408 -3.53967 0.000414565
201 1 9.7185 -1.76795 -3.59842 -3.54012 0.000248124
202 1 9.35279 0.00763989 -1.79092 -3.53962 0.000526973
203 1 8.98308 1.77887 0.0165834 -3.53937 0.000498452
204 1 8.60936 3.54864 1.82408 -3.53967 0.000291298
205 1 11.1164 0.363763 -3.59842 -3.53984 0.000183437
206 1 10.7486 2.13948 -1.79092 -3.53974 0.000302714
207 1 10.3768 3.91278 0.0165841 -3.54011 0.000467066
208 1 10.0037 5.68314 1.82408 -3.54061 0.000916102
209 1 12.5142 2.49558 -3.59842 -3.54014 0.000240103
210 1 12.1469 4.26957 -1.79092 -3.54028 0.000463544
211 1 11.7808 6.03912 0.0165842 -3.54025 0.000478891
212 1 11.4188 7.80429 1.82408 -3.53988 0.000190713
213 1 13.9197 4.62193 -3.59842 -3.54024 0.000256162
214 1 13.5588 6.39165 -1.79092 -3.54002 0.000180513
215 1 13.2 8.1582 0.0165842 -3.53981 8.04543e-05
216 1 12.8426 9.9234 1.82408 -3.53982 3.53936e-05
217 1 15.3359 6.74283 -3.59842 -3.54001 7.44405e-05
218 1 14.9789 8.51102 -1.79092 -3.53996 5.44542e-05
219 1 14.6224 10.2778 0.0165843 -3.54007 4.82854e-05
220 1 14.2666 12.0435 1.82408 -3.54026 8.15835e-05
221 1 16.7566 8.86267 -3.59842 -3.54011 4.41954e-05
222 1 16.4017 10.6303 -1.79092 -3.54018 5.57291e-05
223 1 16.0481 12.3961 0.0165844 -3.54021 5.76303e-05
224 1 15.6969 14.1604 1.82408 -3.54012 3.7818e-05
225 1 18.1807 10.9815 -3.59842 -3.54019 3.64122e-05
226 1 17.8289 12.748 -1.79092 -3.54013 3.00927e-05
227 1 17.4787 14.5132 0.0165845 -3.54003 3.636e-05
228 1 17.1298 16.2781 1.82408 -3.53994 8.0848e-05
229 1 19.6081 13.0999 -3.59841 -3.5401 2.48154e-05
230 1 19.258 14.8666 -1.79091 -3.54003 4.60157e-05
231 1 18.908 16.6334 0.0165846 -3.54 7.21055e-05
232 1 18.5575 18.401 1.82408 -3.54004 7.86599e-05
233 1 21.0348 15.2206 -3.59841 -3.54006 4.28949e-05
234 1 20.6837 16.989 -1.79091 -3.54007 5.09898e-05
235 1 22.4576 17.3449 -3.59841 -3.54012 3.24972e-05
236 1 1.89438 -17.9209 -3.59842 -3.45266 0.619194
237 1 1.37481 -16.1445 -1.79092 -3.44128 0.678369
238 1 1.00603 -14.5356 0.0165824 -3.4866 0.456255
239 1 0.895275 -12.7934 1.82408 -3.524 0.461147
240 1 3.25946 -15.8724 -3.59842 -3.51752 0.0916438
241 1 2.95915 -14.1811 -1.79092 -3.50894 0.0643736
242 1 2.66225 -12.4618 0.0165824 -3.54275 0.12586
243 1 2.40992 -10.663 1.82408 -3.53123 0.0870263
244 1 4.77857 -13.8425 -3.59842 -3.53058 0.0201937
245 1 4.45745 -12.0953 -1.79092 -3.5355 0.0202082
246 1 4.1216 -10.3101 0.0165832 -3.54446 0.020991
247 1 3.77543 -8.49402 1.82408 -3.54045 0.0126431
248 1 6.22044 -11.7301 -3.59842 -3.53805 0.00315096
249 1 5.86663 -9.94907 -1.79092 -3.54234 0.00178014
250 1 5.51247 -8.15834 0.0165833 -3.54379 0.00273391
251 1 5.16137 -6.36883 1.82408 -3.53968 0.00446794
252 1 7.62349 -9.5932 -3.59842 -3.54066 0.000135341
253 1 7.26979 -7.81175 -1.79092 -3.54139 0.00035071
254 1 6.91836 -6.02928 0.0165833 -3.54076 0.000272102
255 1 6.56335 -4.25017 1.82408 -3.5386 0.00242839
256 1 9.03151 -7.46117 -3.59842 -3.54024 1.77291e-05
257 1 8.67814 -5.68084 -1.79092 -3.5403 0.000103496
258 1 8.32146 -3.89994 0.0165833 -3.54 0.00032959
259 1 7.95757 -2.122 1.82408 -3.5396 0.00108481
260 1 10.4384 -5.32844 -3.59842 -3.54013 4.51945e-05
261 1 10.0803 -3.54752 -1.79092 -3.5403 6.19992e-05
262 1 9.7185 -1.76795 0.0165834 -3.54012 0.000248124
263 1 9.35279 0.00763989 1.82408 -3.53962 0.000526973
264 1 11.8409 -3.19419 -3.59842 -3.54023 2.27226e-05
265 1 11.4801 -1.41433 -1.79092 -3.54012 6.33511e-05
266 1 11.1164 0.363763 0.0165841 -3.53984 0.000183437
267 1 10.7486 2.13948 1.82408 -3.53974 0.000302714
268 1 13.2426 -1.06054 -3.59842 -3.54012 2.84307e-05
269 1 12.8798 0.718425 -1.79092 -3.54008 8.65796e-05
270 1 12.5142 2.49558 0.0165842 -3.54014 0.000240103
271 1 12.1469 4.26957 1.82408 -3.54028 0.000463544
272 1 14.6448 1.07166 -3.59842 -3.54025 8.91298e-05
273 1 14.2821 2.84838 -1.79092 -3.5403 0.000194934
274 1 13.9197 4.62193 0.0165843 -3.54024 0.000256162
275 1 13.5588 6.39165 1.82408 -3.54002 0.000180513
276 1 16.0525 3.19933 -3.59842 -3.54029 0.000116295
277 1 15.6936 4.97244 -1.79092 -3.54017 0.000105407
278 1 15.3359 6.74283 0.0165844 -3.54001 7.44405e-05
279 1 14.9789 8.51102 1.82408 -3.53996 5.44542e-05
280 1 17.4679 5.32247 -3.59842 -3.54016 4.35624e-05
281 1 17.112 7.09343 -1.79092 -3.5401 3.87277e-05
282 1 16.7566 8.86267 0.0165845 -3.54011 4.41954e-05
283 1 16.4017 10.6303 1.82408 -3.54018 5.57291e-05
284 1 18.8878 7.44373 -3.59841 -3.54018 2.48414e-05
285 1 18.5339 9.21344 -1.79092 -3.5402 3.27243e-05
286 1 18.1807 10.9815 0.0165846 -3.54019 3.64122e-05
287 1 17.8289 12.748 1.82408 -3.54013 3.00927e-05
288 1 20.3108 9.56391 -3.59841 -3.54021 1.78404e-05
289 1 19.959 11.3325 -1.79091 -3.54017 1.86587e-05
290 1 19.6081 13.0999 0.0165854 -3.5401 2.48154e-05
291 1 19.258 14.8666 1.82409 -3.54003 4.60157e-05
292 1 21.7362 11.6838 -3.59841 -3.54015 1.3121e-05
293 1 21.3855 13.4523 -1.79091 -3.5401 2.61805e-05
294 1 21.0348 15.2206 0.0165855 -3.54006 4.28949e-05
295 1 20.6837 16.989 1.82409 -3.54007 5.09898e-05
296 1 23.1612 13.8054 -3.59841 -3.54012 2.41707e-05
297 1 22.8097 15.575 -1.79091 -3.54011 3.23416e-05
298 1 22.4576 17.3449 0.0165856 -3.54012 3.24972e-05
299 1 24.5832 15.9297 -3.59841 -3.54015 2.17311e-05
300 1 24.2303 17.7007 -1.79091 -3.54015 1.98354e-05
301 1 26.0021 18.0564 -3.59841 -3.54018 1.18329e-05
302 1 1.89438 -17.9209 0.0165824 -3.45266 0.619194
303 1 1.37481 -16.1445 1.82408 -3.44128 0.678369
304 1 3.60224 -17.6544 -1.79092 -3.5413 0.0712367
305 1 3.25946 -15.8724 0.0165825 -3.51752 0.0916438
306 1 2.95915 -14.1811 1.82408 -3.50894 0.0643736
307 1 5.38394 -17.361 -3.59842 -3.54423 0.0132017
308 1 5.08177 -15.595 -1.79092 -3.53559 0.00807959
309 1 4.77857 -13.8425 0.0165832 -3.53058 0.0201937
310 1 4.45745 -12.0953 1.82408 -3.5355 0.0202082
311 1 6.87311 -15.2773 -3.59842 -3.53849 0.00452558
312 1 6.55733 -13.5061 -1.79092 -3.53677 0.00700341
313 1 6.22044 -11.7301 0.0165833 -3.53805 0.00315096
314 1 5.86663 -9.94907 1.82408 -3.54234 0.00178014
315 1 8.32012 -13.159 -3.59842 -3.53941 0.001759
316 1 7.9765 -11.3759 -1.79092 -3.53977 0.000386705
317 1 7.62349 -9.5932 0.0165833 -3.54066 0.000135341
318 1 7.26979 -7.81175 1.82408 -3.54139 0.00035071
319 1 9.73475 -11.0241 -3.59842 -3.54039 8.35012e-05
320 1 9.38402 -9.24177 -1.79092 -3.54021 2.50354e-05
321 1 9.03151 -7.46117 0.0165834 -3.54024 1.77291e-05
322 1 8.67814 -5.68084 1.82408 -3.5403 0.000103496
323 1 11.1459 -8.89007 -3.59842 -3.54017 2.672e-05
324 1 10.7934 -7.10922 -1.79092 -3.54001 3.1825e-05
325 1 10.4384 -5.32844 0.0165841 -3.54013 4.51945e-05
326 1 10.0803 -3.54752 1.82408 -3.5403 6.19992e-05
327 1 12.5552 -6.75588 -3.59842 -3.5401 3.14582e-05
328 1 12.1993 -4.97494 -1.79092 -3.54015 2.2022e-05
329 1 11.8409 -3.19419 0.0165842 -3.54023 2.27226e-05
330 1 11.4801 -1.41433 1.82408 -3.54012 6.33511e-05
331 1 13.9613 -4.62088 -3.59842 -3.54018 1.57512e-05
332 1 13.6029 -2.84046 -1.79092 -3.54016 1.41699e-05
333 1 13.2426 -1.06054 0.0165842 -3.54012 2.84307e-05
334 1 12.8798 0.718425 1.82408 -3.54008 8.65796e-05
335 1 15.3662 -2.48649 -3.59842 -3.54018 1.52342e-05
336 1 15.0063 -0.706966 -1.79092 -3.54019 3.17759e-05
337 1 14.6448 1.07166 0.0165843 -3.54025 8.91298e-05
338 1 14.2821 2.84838 1.82408 -3.5403 0.000194934
339 1 16.7719 -0.353913 -3.59842 -3.54027 4.56071e-05
340 1 16.4121 1.42364 -1.79092 -3.54031 8.57084e-05
341 1 16.0525 3.19933 0.0165844 -3.54029 0.000116295
342 1 15.6936 4.97244 1.82408 -3.54017 0.000105407
343 1 18.1817 1.77491 -3.59842 -3.5403 6.07864e-05
344 1 17.8244 3.54963 -1.79092 -3.54025 5.68208e-05
345 1 17.4679 5.32247 0.0165845 -3.54016 4.35624e-05
346 1 17.112 7.09343 1.82408 -3.5401 3.87277e-05
347 1 19.5972 3.89992 -3.59841 -3.54023 2.81593e-05
348 1 19.2422 5.67252 -1.79091 -3.54019 2.24339e-05
349 1 18.8878 7.44373 0.0165853 -3.54018 2.48414e-05
350 1 18.5339 9.21344 1.82408 -3.5402 3.27243e-05
351 1 21.0168 6.02279 -3.59841 -3.54023 1.40044e-05
352 1 20.6635 7.79398 -1.79091 -3.54022 1.55299e-05
353 1 20.3108 9.56391 0.0165854 -3.54021 1.78404e-05
354 1 19.959 11.3325 1.82409 -3.54017 1.86587e-05
355 1 22.4391 8.14447 -3.59841 -3.54023 7.69444e-06
356 1 22.0874 9.9146 -1.79091 -3.5402 8.19078e-06
357 1 21.7362 11.6838 0.0165855 -3.54015 1.3121e-05
358 1 21.3855 13.4523 1.82409 -3.5401 2.61805e-05
359 1 23.8632 10.2659 -3.59841 -3.54019 5.68479e-06
360 1 23.5122 12.0358 -1.79091 -3.54015 1.31647e-05
361 1 23.1612 13.8054 0.0165856 -3.54012 2.41707e-05
362 1 22.8097 15.575 1.82409 -3.54011 3.23416e-05
363 1 25.2869 12.3885 -3.59841 -3.54016 1.29068e-05
364 1 24.9354 14.159 -1.79091 -3.54015 1.91342e-05
365 1 24.5832 15.9297 0.0165857 -3.54015 2.17311e-05
366 1 24.2303 17.7007 1.82409 -3.54015 1.98354e-05
367 1 26.7085 14.5131 -3.59841 -3.54017 1.36618e-05
368 1 26.3557 16.2847 -1.79091 -3.54017 1.37043e-05
369 1 26.0021 18.0564 0.0165858 -3.54018 1.18329e-05
370 1 28.1275 16.6397 -3.59841 -3.54019 8.28894e-06
371 1 27.7734 18.4121 -1.79091 -3.54019 6.88086e-06
372 1 3.60224 -17.6544 1.82408 -3.5413 0.0712367
373 1 5.38394 -17.361 0.0165833 -3.54423 0.0132017
374 1 5.08177 -15.595 1.82408 -3.53559 0.00807959
375 1 7.18371 -17.0441 -1.79092 -3.54024 0.00237161
376 1 6.87311 -15.2773 0.0165833 -3.53849 0.00452558
377 1 6.55733 -13.5061 1.82408 -3.53677 0.00700341
378 1 8.97604 -16.7062 -3.59842 -3.53915 0.00168232
379 1 8.65141 -14.9372 -1.79092 -3.53917 0.00291746
380 1 8.32012 -13.159 0.0165833 -3.53941 0.001759
381 1 7.9765 -11.3759 1.82408 -3.53977 0.000386705
382 1 10.4229 -14.5852 -3.59842 -3.53977 0.00116546
383 1 10.0816 -12.8066 -1.79092 -3.54029 0.000485157
384 1 9.73475 -11.0241 0.0165834 -3.54039 8.35012e-05
385 1 9.38402 -9.24177 1.82408 -3.54021 2.50354e-05
386 1 11.8454 -12.4514 -3.59842 -3.54042 0.000193666
387 1 11.4965 -10.6712 -1.79092 -3.54041 7.73849e-05
388 1 11.1459 -8.89007 0.0165841 -3.54017 2.672e-05
389 1 10.7934 -7.10922 1.82408 -3.54001 3.1825e-05
390 1 13.2606 -10.3163 -3.59842 -3.54031 7.30972e-05
391 1 12.9087 -8.53651 -1.79092 -3.54019 4.64706e-05
392 1 12.5552 -6.75588 0.0165842 -3.5401 3.14582e-05
393 1 12.1993 -4.97494 1.82408 -3.54015 2.2022e-05
394 1 14.6726 -8.18117 -3.59842 -3.54021 4.49795e-05
395 1 14.3178 -6.40133 -1.79092 -3.54019 2.75993e-05
396 1 13.9613 -4.62088 0.0165843 -3.54018 1.57512e-05
397 1 13.6029 -2.84046 1.82408 -3.54016 1.41699e-05
398 1 16.0817 -6.04585 -3.59842 -3.54022 2.37629e-05
399 1 15.7247 -4.26628 -1.79092 -3.5402 1.57427e-05
400 1 15.3662 -2.48649 0.0165844 -3.54018 1.52342e-05
401 1 15.0063 -0.706966 1.82408 -3.54019 3.17759e-05
402 1 17.4895 -3.91129 -3.59842 -3.54023 1.7931e-05
403 1 17.1311 -2.13247 -1.79092 -3.54023 2.34452e-05
404 1 16.7719 -0.353913 0.0165845 -3.54027 4.56071e-05
405 1 16.4121 1.42364 1.82408 -3.54031 8.57084e-05
406 1 18.8979 -1.7786 -3.59841 -3.54028 3.14525e-05
407 1 18.5397 -0.00135608 -1.79091 -3.5403 4.8106e-05
408 1 18.1817 1.77491 0.0165846 -3.5403 6.07864e-05
409 1 17.8244 3.54963 1.82408 -3.54025 5.68208e-05
410 1 20.3094 0.350939 -3.59841 -3.5403 3.85388e-05
411 1 19.9529 2.12601 -1.79091 -3.54028 3.65775e-05
412 1 19.5972 3.89992 0.0165854 -3.54023 2.81593e-05
413 1 19.2422 5.67252 1.82409 -3.54019 2.24339e-05
414 1 21.7253 2.47726 -3.59841 -3.54026 2.18227e-05
415 1 21.3707 4.2505 -1.79091 -3.54024 1.62798e-05
416 1 21.0168 6.02279 0.0165855 -3.54023 1.40044e-05
417 1 20.6635 7.79398 1.82409 -3.54022 1.55299e-05
418 1 23.1446 4.60146 -3.59841 -3.54024 1.03713e-05
419 1 22.7915 6.37338 -1.79091 -3.54024 8.47041e-06
420 1 22.4391 8.14447 0.0165856 -3.54023 7.69444e-06
421 1 22.0874 9.9146 1.82409 -3.5402 8.19078e-06
422 1 24.5664 6.72445 -3.59841 -3.54024 4.27733e-06
423 1 24.2145 8.49547 -1.79091 -3.54022 3.43167e-06
424 1 23.8632 10.2659 0.0165857 -3.54019 5.68479e-06
425 1 23.5122 12.0358 1.82409 -3.54015 1.31647e-05
426 1 25.9896 8.84714 -3.59841 -3.54021 2.72462e-06
427 1 25.6382 10.6179 -1.79091 -3.54018 6.43594e-06
428 1 25.2869 12.3885 0.0165858 -3.54016 1.29068e-05
429 1 24.9354 14.159 1.82409 -3.54015 1.91342e-05
430 1 27.4124 10.9707 -3.59841 -3.54018 7.18548e-06
431 1 27.0607 12.7418 -1.79091 -3.54017 1.11926e-05
432 1 26.7085 14.5131 0.0165858 -3.54017 1.36618e-05
433 1 26.3557 16.2847 1.82409 -3.54017 1.37043e-05
434 1 28.8336 13.0957 -3.59841 -3.54019 8.71327e-06
435 1 28.4808 14.8676 -1.79091 -3.54019 9.07535e-06
436 1 28.1275 16.6397 0.0165859 -3.54019 8.28894e-06
437 1 27.7734 18.4121 1.82409 -3.54019 6.88086e-06
438 1 30.2527 15.2223 -3.59841 -3.5402 5.68614e-06
439 1 29.8988 16.9949 -1.79091 -3.5402 4.89074e-06
440 1 31.6699 17.3501 -3.59841 -3.54021 2.9251e-06
441 1 7.18371 -17.0441 1.82408 -3.54024 0.00237161
442 1 8.97604 -16.7062 0.0165834 -3.53915 0.00168232
443 1 8.65141 -14.9372 1.82408 -3.53917 0.00291746
444 1 11.0941 -18.1219 -3.59842 -3.53944 0.000467143
445 1 10.7593 -16.3567 -1.79092 -3.53932 0.0011604
446 1 10.4229 -14.5852 0.0165834 -3.53977 0.00116546
447 1 10.0816 -12.8066 1.82408 -3.54029 0.000485157
448 1 12.5362 -16.0012 -3.59842 -3.53973 0.000559125
449 1 12.1922 -14.2286 -1.79092 -3.5401 0.000393743
450 1 11.8454 -12.4514 0.0165842 -3.54042 0.000193666
451 1 11.4965 -10.6712 1.82408 -3.54041 7.73849e-05
452 1 13.9614 -13.8704 -3.59842 -3.54021 0.000144173
453 1 13.6115 -12.0945 -1.79092 -3.54034 9.99363e-05
454 1 13.2606 -10.3163 0.0165842 -3.54031 7.30972e-05
455 1 12.9087 -8.53651 1.82408 -3.54019 4.64706e-05
456 1 15.3789 -11.7366 -3.59842 -3.54026 5.75194e-05
457 1 15.0262 -9.95976 -1.79092 -3.54025 5.58914e-05
458 1 14.6726 -8.18117 0.0165843 -3.54021 4.49795e-05
459 1 14.3178 -6.40133 1.82408 -3.54019 2.75993e-05
460 1 16.7927 -9.60222 -3.59842 -3.54022 3.60902e-05
461 1 16.4377 -7.82466 -1.79092 -3.54023 3.27585e-05
462 1 16.0817 -6.04585 0.0165844 -3.54022 2.37629e-05
463 1 15.7247 -4.26628 1.82408 -3.5402 1.57427e-05
464 1 18.2038 -7.46757 -3.59842 -3.54023 2.10705e-05
465 1 17.847 -5.68981 -1.79092 -3.54023 1.93466e-05
466 1 17.4895 -3.91129 0.0165845 -3.54023 1.7931e-05
467 1 17.1311 -2.13247 1.82408 -3.54023 2.34452e-05
468 1 19.6136 -5.33357 -3.59841 -3.54025 1.61348e-05
469 1 19.2559 -3.55619 -1.79091 -3.54026 2.10094e-05
470 1 18.8979 -1.7786 0.0165853 -3.54028 3.14525e-05
471 1 18.5397 -0.00135608 1.82409 -3.5403 4.8106e-05
472 1 21.024 -3.20123 -3.59841 -3.54028 2.27268e-05
473 1 20.6665 -1.42495 -1.79091 -3.5403 3.21055e-05
474 1 20.3094 0.350939 0.0165854 -3.5403 3.85388e-05
475 1 19.9529 2.12601 1.82409 -3.54028 3.65775e-05
476 1 22.4368 -1.07148 -3.59841 -3.54029 2.63997e-05
477 1 22.0807 0.703207 -1.79091 -3.54028 2.65832e-05
478 1 21.7253 2.47726 0.0165855 -3.54026 2.18227e-05
479 1 21.3707 4.2505 1.82409 -3.54024 1.62798e-05
480 1 23.853 1.05559 -3.59841 -3.54026 1.73449e-05
481 1 23.4984 2.82882 -1.79091 -3.54025 1.37082e-05
482 1 23.1446 4.60146 0.0165856 -3.54024 1.03713e-05
483 1 22.7915 6.37338 1.82409 -3.54024 8.47041e-06
484 1 25.2722 3.18071 -3.59841 -3.54025 8.59142e-06
485 1 24.9189 4.95284 -1.79091 -3.54024 6.23241e-06
486 1 24.5664 6.72445 0.0165857 -3.54024 4.27733e-06
487 1 24.2145 8.49547 1.82409 -3.54022 3.43167e-06
488 1 26.6934 5.30469 -3.59841 -3.54024 3.26924e-06
489 1 26.3412 7.07608 -1.79091 -3.54023 2.12742e-06
490 1 25.9896 8.84714 0.0165858 -3.54021 2.72462e-06
491 1 25.6382 10.6179 1.82409 -3.54018 6.43594e-06
492 1 28.1158 7.42835 -3.59841 -3.54021 1.77035e-06
493 1 27.764 9.19953 -1.79091 -3.5402 3.57746e-06
494 1 27.4124 10.9707 0.0165859 -3.54018 7.18548e-06
495 1 27.0607 12.7418 1.82409 -3.54017 1.11926e-05
496 1 29.538 9.55257 -3.59841 -3.5402 4.41214e-06
497 1 29.1859 11.3241 -1.79091 -3.54019 6.96737e-06
498 1 28.8336 13.0957 0.016586 -3.54019 8.71327e-06
499 1 28.4808 14.8676 1.82409 -3.54019 9.07535e-06
500 1 30.9588 11.678 -3.59841 -3.5402 5.91223e-06
501 1 30.606 13.45 -1.79091 -3.5402 6.14571e-06
502 1 30.2527 15.2223 0.0165861 -3.5402 5.68614e-06
503 1 29.8988 16.9949 1.82409 -3.5402 4.89074e-06
504 1 32.3779 13.8047 -3.59841 -3.5402 3.90461e-06
505 1 32.0242 15.5772 -1.79091 -3.5402 3.46656e-06
506 1 31.6699 17.3501 0.0165861 -3.54021 2.9251e-06
507 1 33.7955 15.9322 -3.59841 -3.54021 2.30147e-06
508 1 33.4409 17.7053 -1.79091 -3.54022 1.82787e-06
509 1 35.2119 18.0604 -3.59841 -3.54023 1.04437e-06
510 1 11.0941 -18.1219 0.0165841 -3.53944 0.000467143
511 1 10.7593 -16.3567 1.82408 -3.53932 0.0011604
512 1 12.8778 -17.7688 -1.79092 -3.53959 0.000433251
513 1 12.5362 -16.0012 0.0165842 -3.53973 0.000559125
514 1 12.1922 -14.2286 1.82408 -3.5401 0.000393743
515 1 14.6567 -17.4123 -3.59842 -3.53983 0.000264204
516 1 14.3099 -15.6431 -1.79092 -3.54001 0.000227601
517 1 13.9614 -13.8704 0.0165843 -3.54021 0.000144173
518 1 13.6115 -12.0945 1.82408 -3.54034 9.99363e-05
519 1 16.0823 -15.2842 -3.59842 -3.54013 9.25856e-05
520 1 15.731 -13.5115 -1.79092 -3.54023 6.40112e-05
521 1 15.3789 -11.7366 0.0165844 -3.54026 5.75194e-05
522 1 15.0262 -9.95976 1.82408 -3.54025 5.58914e-05
523 1 17.5007 -13.1525 -3.59842 -3.54021 3.29263e-05
524 1 17.147 -11.3782 -1.79092 -3.54022 3.37665e-05
525 1 16.7927 -9.60222 0.0165845 -3.54022 3.60902e-05
526 1 16.4377 -7.82466 1.82408 -3.54023 3.27585e-05
527 1 18.9155 -11.0196 -3.59842 -3.54021 1.8663e-05
528 1 18.5599 -9.24422 -1.79092 -3.54022 2.06118e-05
529 1 18.2038 -7.46757 0.0165846 -3.54023 2.10705e-05
530 1 17.847 -5.68981 1.82408 -3.54023 1.93466e-05
531 1 20.3279 -8.88621 -3.59841 -3.54022 1.08828e-05
532 1 19.971 -7.11032 -1.79091 -3.54023 1.32402e-05
533 1 19.6136 -5.33357 0.0165854 -3.54025 1.61348e-05
534 1 19.2559 -3.55619 1.82409 -3.54026 2.10094e-05
535 1 21.7392 -6.75327 -3.59841 -3.54024 9.33207e-06
536 1 21.3816 -4.97744 -1.79091 -3.54026 1.48476e-05
537 1 21.024 -3.20123 0.0165855 -3.54028 2.27268e-05
538 1 20.6665 -1.42495 1.82409 -3.5403 3.21055e-05
539 1 23.1509 -4.62166 -3.59841 -3.54026 1.41866e-05
540 1 22.7936 -2.84653 -1.79091 -3.54028 2.12043e-05
541 1 22.4368 -1.07148 0.0165856 -3.54029 2.63997e-05
542 1 22.0807 0.703207 1.82409 -3.54028 2.65832e-05
543 1 24.5645 -2.49211 -3.59841 -3.54027 1.7234e-05
544 1 24.2084 -0.718096 -1.79091 -3.54027 1.90108e-05
545 1 23.853 1.05559 0.0165857 -3.54026 1.73449e-05
546 1 23.4984 2.82882 1.82409 -3.54025 1.37082e-05
547 1 25.9809 -0.364754 -3.59841 -3.54026 1.27175e-05
548 1 25.6261 1.40815 -1.79091 -3.54025 1.10238e-05
549 1 25.2722 3.18071 0.0165858 -3.54025 8.59142e-06
550 1 24.9189 4.95284 1.82409 -3.54024 6.23241e-06
551 1 27.3998 1.76091 -3.59841 -3.54024 6.61971e-06
552 1 27.0463 3.53295 -1.79091 -3.54024 4.92877e-06
553 1 26.6934 5.30469 0.0165858 -3.54024 3.26924e-06
554 1 26.3412 7.07608 1.82409 -3.54023 2.12742e-06
555 1 28.8205 3.88554 -3.59841 -3.54023 2.5092e-06
556 1 28.4679 5.65703 -1.79091 -3.54023 1.708e-06
557 1 28.1158 7.42835 0.0165859 -3.54021 1.77035e-06
558 1 27.764 9.19953 1.82409 -3.5402 3.57746e-06
559 1 30.2422 6.00988 -3.59841 -3.54021 1.24975e-06
560 1 29.89 7.78121 -1.79091 -3.54021 2.2391e-06
561 1 29.538 9.55257 0.016586 -3.5402 4.41214e-06
562 1 29.1859 11.3241 1.82409 -3.54019 6.96737e-06
563 1 31.6638 8.13461 -3.59841 -3.5402 2.81941e-06
564 1 31.3114 9.90619 -1.79091 -3.5402 4.68476e-06
565 1 30.9588 11.678 0.0165861 -3.5402 5.91223e-06
566 1 30.606 13.45 1.82409 -3.5402 6.14571e-06
567 1 33.0843 10.2602 -3.59841 -3.54021 4.2963e-06
568 1 32.7313 12.0323 -1.79091 -3.5402 4.30733e-06
569 1 32.3779 13.8047 0.0165862 -3.5402 3.90461e-06
570 1 32.0242 15.5772 1.82409 -3.5402 3.46656e-06
571 1 34.5034 12.387 -3.59841 -3.5402 2.52965e-06
572 1 34.1496 14.1595 -1.79091 -3.5402 2.35075e-06
573 1 33.7955 15.9322 0.0165862 -3.54021 2.30147e-06
574 1 33.4409 17.7053 1.82409 -3.54022 1.82787e-06
575 1 35.9212 14.5144 -3.59841 -3.54021 1.80563e-06
576 1 35.5668 16.2873 -1.79091 -3.54022 1.88186e-06
577 1 35.2119 18.0604 0.0165862 -3.54023 1.04437e-06
578 1 37.338 16.6423 -3.59841 -3.54024 1.57405e-06