ITEM: TIMESTEP
0
ITEM: NUMBER OF ATOMS
2504
ITEM: BOX BOUNDS xy xz yz mm pp pp
-5.5498871899999997e+01 5.5498871899999997e+01 0.0000000000000000e+00
-1.8432957300000002e+01 1.8432957300000002e+01 0.0000000000000000e+00
-3.6150000000000002e+00 3.6150000000000002e+00 0.0000000000000000e+00
ITEM: ATOMS id type x y z c_eng c_csym
1 1 0.637052 16.7239 -3.61086 -3.4442 3.68118
2 1 0.286022 -18.3317 -1.80336 -3.28762 9.17858
3 1 1.01543 13.0179 -3.61086 -3.48427 0.426302
4 1 0.884307 14.7666 -1.80336 -3.50371 0.593318
5 1 0.637052 16.7239 0.00414317 -3.4442 3.68118
6 1 0.286022 -18.3317 1.81164 -3.28762 9.17858
7 1 2.60407 15.1638 -3.61086 -3.54212 0.122191
8 1 2.29544 16.9928 -1.80336 -3.52327 0.0749718
9 1 3.98907 17.3651 -3.61086 -3.5462 0.0283293
10 1 0.601115 7.46606 -3.61086 -3.47929 2.68644
11 1 0.249182 9.25721 -1.80336 -3.30131 7.053
12 1 1.87318 9.64481 -3.61086 -3.47218 0.518197
13 1 1.37782 11.3985 -1.80336 -3.45612 0.574771
14 1 1.01543 13.0179 0.00414346 -3.48427 0.426302
15 1 0.884307 14.7666 1.81164 -3.50371 0.593318
16 1 3.25126 11.7128 -3.61086 -3.51966 0.0572906
17 1 2.93965 13.4122 -1.80336 -3.51014 0.085593
18 1 2.60407 15.1638 0.00414358 -3.54212 0.122191
19 1 2.29544 16.9928 1.81164 -3.52327 0.0749718
20 1 4.72787 13.7933 -3.61086 -3.53246 0.0161538
21 1 4.36649 15.5598 -1.80336 -3.53825 0.0101388
22 1 3.98907 17.3651 0.00414372 -3.5462 0.0283293
23 1 6.1211 15.9394 -3.61086 -3.5407 0.00230173
24 1 5.74848 17.7187 -1.80336 -3.54463 0.0107325
25 1 7.53354 18.0652 -3.61086 -3.54097 0.00173971
26 1 1.05021 3.78707 -3.61086 -3.49651 0.356747
27 1 0.877127 5.54291 -1.80336 -3.51884 0.384316
28 1 0.601115 7.46606 0.00414317 -3.47929 2.68643
29 1 0.249182 9.25721 1.81164 -3.30146 7.053
30 1 2.60298 5.9419 -3.61086 -3.54237 0.0884351
31 1 2.28059 7.75982 -1.80336 -3.52406 0.0567051
32 1 1.87318 9.64481 0.00414363 -3.47218 0.518197
33 1 1.37782 11.3985 1.81164 -3.45612 0.574771
34 1 3.98098 8.14134 -3.61086 -3.5459 0.0228672
35 1 3.60158 9.94727 -1.80336 -3.54346 0.0502929
36 1 3.25126 11.7128 0.00414377 -3.51966 0.0572906
37 1 2.93965 13.4122 1.81164 -3.51014 0.085593
38 1 5.38843 10.2715 -3.61086 -3.54297 0.00579568
39 1 5.06423 12.0317 -1.80336 -3.5346 0.00919718
40 1 4.72787 13.7933 0.00414406 -3.53246 0.0161538
41 1 4.36649 15.5598 1.81164 -3.53825 0.0101388
42 1 6.84186 12.3819 -3.61086 -3.53848 0.0033122
43 1 6.49094 14.1579 -1.80336 -3.53823 0.00200193
44 1 6.1211 15.9394 0.00414411 -3.5407 0.00230173
45 1 5.74848 17.7187 1.81164 -3.54463 0.0107325
46 1 8.25202 14.5186 -3.61086 -3.5408 0.000382282
47 1 7.88927 16.2957 -1.80336 -3.54133 0.00201724
48 1 7.53354 18.0652 0.00414426 -3.54097 0.00173971
49 1 9.66709 16.6452 -3.61086 -3.54072 0.00049513
50 1 9.31939 18.4123 -1.80336 -3.53959 0.000198521
51 1 0.606013 -1.75575 -3.61086 -3.48332 2.58018
52 1 0.256727 0.0302983 -1.80336 -3.3074 6.8969
53 1 1.90343 0.406565 -3.61086 -3.48126 0.466212
54 1 1.42408 2.15656 -1.80336 -3.46312 0.50214
55 1 1.05021 3.78707 0.00414346 -3.49651 0.35674
56 1 0.877127 5.54291 1.81164 -3.51867 0.384316
57 1 3.27961 2.48503 -3.61086 -3.52216 0.0469358
58 1 2.95202 4.19224 -1.80336 -3.51605 0.0631052
59 1 2.60298 5.9419 0.00414358 -3.54237 0.0884351
60 1 2.28059 7.75982 1.81164 -3.52408 0.0567051
61 1 4.7354 4.57684 -3.61086 -3.53326 0.0126915
62 1 4.36628 6.3421 -1.80336 -3.53818 0.00752263
63 1 3.98098 8.14134 0.00414372 -3.5459 0.0228672
64 1 3.60158 9.94727 1.81164 -3.54346 0.0502929
65 1 6.12103 6.72493 -3.61086 -3.54064 0.00233487
66 1 5.7426 8.50134 -1.80336 -3.54419 0.00944988
67 1 5.38843 10.2715 0.0041441 -3.54297 0.00579568
68 1 5.06423 12.0317 1.81164 -3.5346 0.00919718
69 1 7.52757 8.85262 -3.61086 -3.54075 0.00150434
70 1 7.18181 10.6145 -1.80336 -3.53924 0.00120849
71 1 6.84186 12.3819 0.00414426 -3.53848 0.0033122
72 1 6.49094 14.1579 1.81164 -3.53823 0.00200193
73 1 8.96292 10.9696 -3.61086 -3.53912 0.000734844
74 1 8.6109 12.7409 -1.80336 -3.53982 0.000592518
75 1 8.25202 14.5186 0.00414432 -3.5408 0.000382282
76 1 7.88927 16.2957 1.81164 -3.54133 0.00201724
77 1 10.38 13.1 -3.61086 -3.5405 7.41846e-05
78 1 10.0218 14.8737 -1.80336 -3.54108 0.000455993
79 1 9.66709 16.6452 0.00414446 -3.54072 0.00049513
80 1 9.31939 18.4123 1.81164 -3.53959 0.000198521
81 1 11.7977 15.2265 -3.61086 -3.54059 0.000143963
82 1 11.4467 16.9955 -1.80336 -3.54012 5.02891e-05
83 1 13.2242 17.3485 -3.61085 -3.53997 5.04545e-05
84 1 1.06325 -5.41889 -3.61086 -3.49274 0.373189
85 1 0.883235 -3.67328 -1.80336 -3.52141 0.383433
86 1 0.606013 -1.75575 0.00414317 -3.48332 2.58018
87 1 0.256727 0.0302983 1.81164 -3.30754 6.89691
88 1 2.61774 -3.26854 -3.61086 -3.5436 0.084279
89 1 2.29592 -1.46242 -1.80336 -3.5281 0.0518357
90 1 1.90343 0.406565 0.00414363 -3.48126 0.466209
91 1 1.42408 2.15656 1.81164 -3.46335 0.50214
92 1 4.00865 -1.08049 -3.61086 -3.54642 0.0170327
93 1 3.63414 0.717923 -1.80336 -3.54308 0.0329312
94 1 3.27961 2.48503 0.00414377 -3.52216 0.0469358
95 1 2.95202 4.19224 1.81164 -3.51608 0.0631052
96 1 5.41477 1.05215 -3.61086 -3.54286 0.0035188
97 1 5.0813 2.81395 -1.80336 -3.53561 0.00685136
98 1 4.7354 4.57684 0.00414406 -3.53326 0.0126915
99 1 4.36628 6.3421 1.81164 -3.53818 0.00752263
100 1 6.8543 3.16934 -3.61086 -3.53887 0.00241046
101 1 6.49656 4.94496 -1.80336 -3.53847 0.0016458
102 1 6.12103 6.72493 0.00414411 -3.54064 0.00233487
103 1 5.7426 8.50134 1.81164 -3.54419 0.00944988
104 1 8.2564 5.30835 -3.61086 -3.54079 0.000432436
105 1 7.88863 7.08444 -1.80336 -3.54124 0.00200616
106 1 7.52757 8.85262 0.00414426 -3.54075 0.00150434
107 1 7.18181 10.6145 1.81164 -3.53924 0.00120849
108 1 9.66527 7.43668 -3.61086 -3.54063 0.000477201
109 1 9.31229 9.20345 -1.80336 -3.53952 0.000166688
110 1 8.96292 10.9696 0.00414441 -3.53912 0.000734844
111 1 8.6109 12.7409 1.81164 -3.53982 0.000592518
112 1 11.0906 9.55742 -3.61086 -3.53962 0.000129921
113 1 10.7369 11.3274 -1.80336 -3.53976 0.000145627
114 1 10.38 13.1 0.00414452 -3.5405 7.41846e-05
115 1 10.0218 14.8737 1.81164 -3.54108 0.000455993
116 1 12.5093 11.6841 -3.61086 -3.54023 1.154e-05
117 1 12.1527 13.4558 -1.80336 -3.54057 9.79394e-05
118 1 11.7977 15.2265 0.00414488 -3.54059 0.000143963
119 1 11.4467 16.9955 1.81164 -3.54012 5.02891e-05
120 1 13.9278 13.8098 -3.61085 -3.54038 4.04465e-05
121 1 13.575 15.5793 -1.80335 -3.54021 1.69378e-05
122 1 13.2242 17.3485 0.00414509 -3.53997 5.04545e-05
123 1 15.3511 15.9331 -3.61085 -3.54009 1.32639e-05
124 1 14.9992 17.7031 -1.80335 -3.54005 3.40516e-05
125 1 16.7729 18.0584 -3.61085 -3.54015 1.20505e-05
126 1 0.656592 -10.9321 -3.61086 -3.45058 3.49546
127 1 0.320631 -9.13516 -1.80336 -3.2944 8.8876
128 1 1.94568 -8.77803 -3.61086 -3.46995 0.579226
129 1 1.45659 -7.02725 -1.80336 -3.44735 0.606844
130 1 1.06325 -5.41889 0.00414346 -3.49274 0.373183
131 1 0.883235 -3.67328 1.81164 -3.52125 0.383433
132 1 3.30836 -6.70826 -3.61086 -3.52097 0.0663906
133 1 2.97411 -5.00494 -1.80336 -3.51415 0.0649073
134 1 2.61774 -3.26854 0.00414358 -3.5436 0.084279
135 1 2.29592 -1.46242 1.81164 -3.52813 0.0518357
136 1 4.75988 -4.62634 -3.61086 -3.53279 0.014751
137 1 4.39056 -2.86764 -1.80336 -3.53802 0.00595984
138 1 4.00865 -1.08049 0.0041439 -3.54642 0.0170327
139 1 3.63414 0.717923 1.81164 -3.54309 0.0329312
140 1 6.14939 -2.48828 -3.61086 -3.53992 0.00182787
141 1 5.77246 -0.715933 -1.80336 -3.54347 0.00533647
142 1 5.41477 1.05215 0.0041441 -3.54286 0.0035188
143 1 5.0813 2.81395 1.81164 -3.53561 0.00685136
144 1 7.553 -0.361615 -3.61086 -3.54046 0.000862938
145 1 7.20179 1.40143 -1.80336 -3.53943 0.000799394
146 1 6.8543 3.16934 0.00414426 -3.53887 0.00241046
147 1 6.49656 4.94496 1.81164 -3.53847 0.0016458
148 1 8.97797 1.75896 -3.61086 -3.53921 0.000549825
149 1 8.62055 3.53113 -1.80336 -3.53987 0.000393725
150 1 8.2564 5.30835 0.00414432 -3.54079 0.000432436
151 1 7.88863 7.08444 1.81164 -3.54124 0.00200616
152 1 10.3871 3.89123 -3.61086 -3.54044 8.74528e-05
153 1 10.0247 5.66544 -1.80336 -3.54098 0.000468586
154 1 9.66527 7.43668 0.00414446 -3.54063 0.000477201
155 1 9.31229 9.20345 1.81164 -3.53952 0.000166688
156 1 11.7985 6.01922 -3.61086 -3.54051 0.000153706
157 1 11.4434 7.7888 -1.80336 -3.54007 4.04073e-05
158 1 11.0906 9.55742 0.00414479 -3.53962 0.000129921
159 1 10.7369 11.3274 1.81164 -3.53976 0.000145627
160 1 13.2193 8.14238 -3.61085 -3.53997 2.0663e-05
161 1 12.865 9.91279 -1.80335 -3.53997 3.25037e-05
162 1 12.5093 11.6841 0.00414496 -3.54023 1.154e-05
163 1 12.1527 13.4558 1.81164 -3.54057 9.79394e-05
164 1 14.6383 10.2679 -3.61085 -3.5402 3.20406e-06
165 1 14.2827 12.0392 -1.80335 -3.54036 2.26781e-05
166 1 13.9278 13.8098 0.00414515 -3.54038 4.04465e-05
167 1 13.575 15.5793 1.81165 -3.54021 1.69378e-05
168 1 16.0571 12.3931 -3.61085 -3.5403 1.26184e-05
169 1 15.7036 14.1633 -1.80335 -3.54022 6.72659e-06
170 1 15.3511 15.9331 0.00414541 -3.54009 1.32639e-05
171 1 14.9992 17.7031 1.81165 -3.54005 3.40516e-05
172 1 17.4786 14.5171 -3.61085 -3.54015 4.63411e-06
173 1 17.1258 16.2875 -1.80335 -3.54011 1.2068e-05
174 1 16.7729 18.0584 0.00414569 -3.54015 1.20505e-05
175 1 18.8995 16.6423 -3.61085 -3.54016 6.25988e-06
176 1 18.5459 18.4136 -1.80335 -3.5402 3.59235e-06
177 1 1.02261 -14.6175 -3.61086 -3.47886 0.489041
178 1 0.897489 -12.873 -1.80336 -3.50944 0.559525
179 1 0.656592 -10.9321 0.00414317 -3.45058 3.49546
180 1 0.320631 -9.13516 1.81164 -3.2944 8.8876
181 1 2.62728 -12.4847 -3.61086 -3.54301 0.123551
182 1 2.32764 -10.6664 -1.80336 -3.52659 0.0729727
183 1 1.94568 -8.77803 0.00414363 -3.46995 0.579223
184 1 1.45659 -7.02725 1.81164 -3.44758 0.606844
185 1 4.02777 -10.2949 -3.61086 -3.54667 0.0221691
186 1 3.66109 -8.48412 -1.80336 -3.54336 0.0375628
187 1 3.30836 -6.70826 0.00414377 -3.52097 0.0663906
188 1 2.97411 -5.00494 1.81164 -3.51417 0.0649073
189 1 5.43311 -8.16003 -3.61086 -3.54381 0.00445535
190 1 5.10412 -6.39112 -1.80336 -3.53615 0.00722329
191 1 4.75988 -4.62634 0.00414406 -3.53279 0.014751
192 1 4.39056 -2.86764 1.81164 -3.53802 0.00595984
193 1 6.87348 -6.04461 -3.61086 -3.53921 0.00215134
194 1 6.52076 -4.26659 -1.80336 -3.53835 0.00206211
195 1 6.14939 -2.48828 0.00414411 -3.53992 0.00182787
196 1 5.77246 -0.715933 1.81164 -3.54347 0.00533647
197 1 8.27889 -3.909 -3.61086 -3.54065 0.000259053
198 1 7.9147 -2.13114 -1.80336 -3.54084 0.00126302
199 1 7.553 -0.361615 0.00414426 -3.54046 0.000862938
200 1 7.20179 1.40143 1.81164 -3.53943 0.000799394
201 1 9.68612 -1.77996 -3.61086 -3.54056 0.00025083
202 1 9.33162 -0.00971776 -1.80336 -3.53955 0.000172326
203 1 8.97797 1.75896 0.00414441 -3.53921 0.000549825
204 1 8.62055 3.53113 1.81164 -3.53987 0.000393725
205 1 11.1044 0.344187 -3.61086 -3.53971 0.000116228
206 1 10.7478 2.11706 -1.80336 -3.53978 0.000118359
207 1 10.3871 3.89123 0.0041447 -3.54044 8.74528e-05
208 1 10.0247 5.66544 1.81164 -3.54098 0.000468586
209 1 12.5164 2.47349 -3.61086 -3.54023 2.80714e-05
210 1 12.157 4.24729 -1.80336 -3.54051 0.000125685
211 1 11.7985 6.01922 0.00414488 -3.54051 0.000153706
212 1 11.4434 7.7888 1.81164 -3.54007 4.04073e-05
213 1 13.9294 4.60095 -3.61085 -3.54036 5.68638e-05
214 1 13.5737 6.3722 -1.80335 -3.54018 2.1663e-05
215 1 13.2193 8.14238 0.00414509 -3.53997 2.0663e-05
216 1 12.865 9.91279 1.81165 -3.53997 3.25037e-05
217 1 15.348 6.72546 -3.61085 -3.5401 5.2378e-06
218 1 14.9934 8.4966 -1.80335 -3.54008 7.10378e-06
219 1 14.6383 10.2679 0.00414529 -3.5402 3.20406e-06
220 1 14.2827 12.0392 1.81165 -3.54036 2.26781e-05
221 1 16.7667 8.85068 -3.61085 -3.54019 1.88248e-06
222 1 16.4118 10.6221 -1.80335 -3.54027 6.78457e-06
223 1 16.0571 12.3931 0.00414551 -3.5403 1.26184e-05
224 1 15.7036 14.1633 1.81165 -3.54022 6.72659e-06
225 1 18.1856 10.9758 -3.61085 -3.54025 4.66861e-06
226 1 17.8318 12.7467 -1.80335 -3.54022 3.33947e-06
227 1 17.4786 14.5171 0.0041458 -3.54015 4.63411e-06
228 1 17.1258 16.2875 1.81165 -3.54011 1.2068e-05
229 1 19.606 13.1004 -3.61085 -3.54018 2.17035e-06
230 1 19.2528 14.8713 -1.80335 -3.54015 5.02146e-06
231 1 18.8995 16.6423 0.00414612 -3.54016 6.25988e-06
232 1 18.5459 18.4136 1.81165 -3.5402 3.59235e-06
233 1 21.0262 15.2257 -3.61085 -3.54018 3.41745e-06
234 1 20.6725 16.9971 -1.80335 -3.54019 2.85398e-06
235 1 22.4452 17.352 -3.61085 -3.5402 1.55641e-06
236 1 1.89895 -17.971 -3.61086 -3.45793 0.67762
237 1 1.39303 -16.2155 -1.80336 -3.43249 0.732794
238 1 1.02261 -14.6175 0.00414346 -3.47886 0.489041
239 1 0.897489 -12.873 1.81164 -3.50944 0.559525
240 1 3.27186 -15.9153 -3.61086 -3.51758 0.0757601
241 1 2.96061 -14.2223 -1.80336 -3.50838 0.0883508
242 1 2.62728 -12.4847 0.00414358 -3.54301 0.123551
243 1 2.32764 -10.6664 1.81164 -3.5266 0.0729727
244 1 4.75484 -13.85 -3.61086 -3.53169 0.0188223
245 1 4.39894 -12.0907 -1.80336 -3.53778 0.0102973
246 1 4.02777 -10.2949 0.0041439 -3.54667 0.0221691
247 1 3.66109 -8.48412 1.81164 -3.54336 0.0375628
248 1 6.15561 -11.7132 -3.61086 -3.54003 0.00126813
249 1 5.78499 -9.93582 -1.80336 -3.54415 0.00598054
250 1 5.43311 -8.16003 0.0041441 -3.54381 0.00445535
251 1 5.10412 -6.39112 1.81164 -3.53615 0.00722329
252 1 7.56223 -9.58443 -3.61086 -3.54081 0.000806164
253 1 7.21578 -7.81704 -1.80336 -3.53994 0.00083983
254 1 6.87348 -6.04461 0.00414426 -3.53921 0.00215134
255 1 6.52076 -4.26659 1.81164 -3.53835 0.00206211
256 1 8.99008 -7.46341 -3.61086 -3.53942 0.000500615
257 1 8.63774 -5.68859 -1.80336 -3.54001 0.000445067
258 1 8.27889 -3.909 0.00414432 -3.54065 0.000259053
259 1 7.9147 -2.13114 1.81164 -3.54084 0.00126302
260 1 10.4025 -5.33143 -3.61086 -3.54043 4.55261e-05
261 1 10.0438 -3.55459 -1.80336 -3.54091 0.000210382
262 1 9.68612 -1.77996 0.00414446 -3.54056 0.00025083
263 1 9.33162 -0.00971776 1.81164 -3.53955 0.000172326
264 1 11.8136 -3.20147 -3.61086 -3.54051 5.39597e-05
265 1 11.4587 -1.42821 -1.80336 -3.54014 1.71455e-05
266 1 11.1044 0.344187 0.00414479 -3.53971 0.000116228
267 1 10.7478 2.11706 1.81164 -3.53978 0.000118359
268 1 13.23 -1.07466 -3.61085 -3.54005 1.54819e-05
269 1 12.8743 0.699184 -1.80335 -3.54003 2.59181e-05
270 1 12.5164 2.47349 0.00414496 -3.54023 2.80714e-05
271 1 12.157 4.24729 1.81164 -3.54051 0.000125685
272 1 14.6439 1.05399 -3.61085 -3.54024 6.60521e-06
273 1 14.2866 2.82804 -1.80335 -3.54036 3.67741e-05
274 1 13.9294 4.60095 0.00414515 -3.54036 5.68638e-05
275 1 13.5737 6.3722 1.81165 -3.54018 2.1663e-05
276 1 16.0582 3.18153 -3.61085 -3.54032 2.03914e-05
277 1 15.7027 4.95395 -1.80335 -3.54022 1.2079e-05
278 1 15.348 6.72546 0.00414541 -3.5401 5.2378e-06
279 1 14.9934 8.4966 1.81165 -3.54008 7.10378e-06
280 1 17.4759 5.30707 -3.61085 -3.54018 2.09076e-06
281 1 17.1214 7.07898 -1.80335 -3.54015 1.81108e-06
282 1 16.7667 8.85068 0.00414569 -3.54019 1.88248e-06
283 1 16.4118 10.6221 1.81165 -3.54027 6.78457e-06
284 1 18.8944 7.43253 -3.61085 -3.5402 8.77464e-07
285 1 18.54 9.20438 -1.80335 -3.54024 2.64647e-06
286 1 18.1856 10.9758 0.00414597 -3.54025 4.66861e-06
287 1 17.8318 12.7467 1.81165 -3.54022 3.33947e-06
288 1 20.3134 9.55786 -3.61085 -3.54024 1.77757e-06
289 1 19.9595 11.3293 -1.80335 -3.54022 1.66351e-06
290 1 19.606 13.1004 0.00414644 -3.54018 2.17035e-06
291 1 19.2528 14.8713 1.81165 -3.54015 5.02146e-06
292 1 21.7331 11.6829 -3.61085 -3.5402 9.95981e-07
293 1 21.3797 13.4543 -1.80335 -3.54018 2.30693e-06
294 1 21.0262 15.2257 0.00414674 -3.54018 3.41745e-06
295 1 20.6725 16.9971 1.81165 -3.54019 2.85398e-06
296 1 23.1528 13.8084 -3.61085 -3.54019 1.81561e-06
297 1 22.7991 15.5802 -1.80335 -3.5402 1.9792e-06
298 1 22.4452 17.352 0.00414698 -3.5402 1.55641e-06
299 1 24.5717 15.9347 -3.61085 -3.54021 1.18661e-06
300 1 24.2176 17.7067 -1.80335 -3.54021 1.02727e-06
301 1 25.9898 18.0615 -3.61085 -3.54021 6.98913e-07
302 1 1.89895 -17.971 0.00414363 -3.45793 0.67762
303 1 1.39303 -16.2155 1.81164 -3.43249 0.732794
304 1 3.61779 -17.6866 -1.80336 -3.54349 0.0567634
305 1 3.27186 -15.9153 0.00414377 -3.51758 0.0757601
306 1 2.96061 -14.2223 1.81164 -3.50838 0.0883508
307 1 5.40098 -17.373 -3.61086 -3.54366 0.00721498
308 1 5.08422 -15.61 -1.80336 -3.53486 0.00965256
309 1 4.75484 -13.85 0.00414406 -3.53169 0.0188223
310 1 4.39894 -12.0907 1.81164 -3.53778 0.0102973
311 1 6.86216 -15.269 -3.61086 -3.53862 0.00372582
312 1 6.51926 -13.4929 -1.80336 -3.53794 0.0029801
313 1 6.15561 -11.7132 0.00414411 -3.54003 0.00126813
314 1 5.78499 -9.93582 1.81164 -3.54415 0.00598054
315 1 8.27855 -13.1361 -3.61086 -3.54056 0.000219074
316 1 7.91943 -11.357 -1.80336 -3.54095 0.00093342
317 1 7.56223 -9.58443 0.00414426 -3.54081 0.000806164
318 1 7.21578 -7.81704 1.81164 -3.53994 0.00083983
319 1 9.69019 -11.0064 -3.61086 -3.54066 0.000190205
320 1 9.33943 -9.23443 -1.80336 -3.53971 9.59732e-05
321 1 8.99008 -7.46341 0.00414441 -3.53942 0.000500615
322 1 8.63774 -5.68859 1.81164 -3.54001 0.000445067
323 1 11.1118 -8.88163 -3.61086 -3.53978 0.000105214
324 1 10.759 -7.10747 -1.80336 -3.53983 0.000127205
325 1 10.4025 -5.33143 0.0041447 -3.54043 4.55261e-05
326 1 10.0438 -3.55459 1.81164 -3.54091 0.000210382
327 1 12.5267 -6.75174 -3.61086 -3.54021 1.30586e-05
328 1 12.1701 -4.9762 -1.80336 -3.54047 3.80951e-05
329 1 11.8136 -3.20147 0.00414488 -3.54051 5.39597e-05
330 1 11.4587 -1.42821 1.81164 -3.54014 1.71455e-05
331 1 13.9398 -4.62211 -3.61085 -3.54035 1.34589e-05
332 1 13.5847 -2.84818 -1.80335 -3.54022 2.55297e-06
333 1 13.23 -1.07466 0.00414509 -3.54005 1.54819e-05
334 1 12.8743 0.699184 1.81165 -3.54003 2.59181e-05
335 1 15.3556 -2.49423 -3.61085 -3.54015 1.77382e-06
336 1 15.0002 -0.720253 -1.80335 -3.54014 4.34081e-06
337 1 14.6439 1.05399 0.00414529 -3.54024 6.60521e-06
338 1 14.2866 2.82804 1.81165 -3.54036 3.67741e-05
339 1 16.7705 -0.365825 -3.61085 -3.54023 2.27537e-06
340 1 16.4144 1.40813 -1.80335 -3.5403 1.14193e-05
341 1 16.0582 3.18153 0.00414551 -3.54032 2.03914e-05
342 1 15.7027 4.95395 1.81165 -3.54022 1.2079e-05
343 1 18.1859 1.76179 -3.61085 -3.54028 8.1235e-06
344 1 17.8307 3.53473 -1.80335 -3.54025 6.06272e-06
345 1 17.4759 5.30707 0.0041458 -3.54018 2.09076e-06
346 1 17.1214 7.07898 1.81165 -3.54015 1.81108e-06
347 1 19.6033 3.88803 -3.61085 -3.54021 1.48596e-06
348 1 19.2489 5.6604 -1.80335 -3.54019 5.77368e-07
349 1 18.8944 7.43253 0.0041463 -3.5402 8.77464e-07
350 1 18.54 9.20438 1.81165 -3.54024 2.64647e-06
351 1 21.0217 6.01387 -3.61085 -3.54022 4.68064e-07
352 1 20.6675 7.78602 -1.80335 -3.54023 1.02471e-06
353 1 20.3134 9.55786 0.00414661 -3.54024 1.77757e-06
354 1 19.9595 11.3293 1.81165 -3.54022 1.66351e-06
355 1 22.4405 8.1395 -3.61085 -3.54023 6.63755e-07
356 1 22.0867 9.91135 -1.80335 -3.54022 6.76917e-07
357 1 21.7331 11.6829 0.00414689 -3.5402 9.95981e-07
358 1 21.3797 13.4543 1.81165 -3.54018 2.30693e-06
359 1 23.86 10.265 -3.61085 -3.54021 4.02237e-07
360 1 23.5064 12.0367 -1.80335 -3.5402 1.03498e-06
361 1 23.1528 13.8084 0.00414713 -3.54019 1.81561e-06
362 1 22.7991 15.5802 1.81165 -3.5402 1.9792e-06
363 1 25.2793 12.3908 -3.61085 -3.5402 9.33235e-07
364 1 24.9256 14.1627 -1.80335 -3.5402 1.22217e-06
365 1 24.5717 15.9347 0.00414737 -3.54021 1.18661e-06
366 1 24.2176 17.7067 1.81165 -3.54021 1.02727e-06
367 1 26.6981 14.5171 -3.61085 -3.54021 8.01207e-07
368 1 26.344 16.2893 -1.80335 -3.54021 7.54586e-07
369 1 25.9898 18.0615 0.00414767 -3.54021 6.98913e-07
370 1 28.1162 16.6439 -3.61085 -3.54021 4.75675e-07
371 1 27.7618 18.4163 -1.80335 -3.54021 4.4596e-07
372 1 3.61779 -17.6866 1.81164 -3.54349 0.0567634
373 1 5.40098 -17.373 0.0041441 -3.54366 0.00721498
374 1 5.08422 -15.61 1.81164 -3.53486 0.00965256
375 1 7.19426 -17.0375 -1.80336 -3.53956 0.00145467
376 1 6.86216 -15.269 0.00414426 -3.53862 0.00372582
377 1 6.51926 -13.4929 1.81164 -3.53794 0.0029801
378 1 8.97621 -16.687 -3.61086 -3.53915 0.000961656
379 1 8.63106 -14.915 -1.80336 -3.53976 0.000994921
380 1 8.27855 -13.1361 0.00414432 -3.54056 0.000219074
381 1 7.91943 -11.357 1.81164 -3.54095 0.00093342
382 1 10.3986 -14.558 -3.61086 -3.54038 0.000109107
383 1 10.0441 -12.7817 -1.80336 -3.54094 0.000146104
384 1 9.69019 -11.0064 0.00414446 -3.54066 0.000190205
385 1 9.33943 -9.23443 1.81164 -3.53971 9.59732e-05
386 1 11.8147 -12.4281 -3.61086 -3.54057 4.2387e-05
387 1 11.4628 -10.6548 -1.80336 -3.54022 1.61502e-05
388 1 11.1118 -8.88163 0.00414479 -3.53978 0.000105214
389 1 10.759 -7.10747 1.81164 -3.53983 0.000127205
390 1 13.2345 -10.301 -3.61085 -3.54009 2.82893e-05
391 1 12.8815 -8.52691 -1.80335 -3.54005 4.05017e-05
392 1 12.5267 -6.75174 0.00414496 -3.54021 1.30586e-05
393 1 12.1701 -4.9762 1.81164 -3.54047 3.80951e-05
394 1 14.6508 -8.17158 -3.61085 -3.54023 7.86743e-06
395 1 14.2955 -6.39675 -1.80335 -3.54033 8.0195e-06
396 1 13.9398 -4.62211 0.00414515 -3.54035 1.34589e-05
397 1 13.5847 -2.84818 1.81165 -3.54022 2.55297e-06
398 1 16.0656 -6.04213 -3.61085 -3.5403 4.2367e-06
399 1 15.7105 -4.26809 -1.80335 -3.54024 1.27467e-06
400 1 15.3556 -2.49423 0.00414541 -3.54015 1.77382e-06
401 1 15.0002 -0.720253 1.81165 -3.54014 4.34081e-06
402 1 17.4813 -3.91373 -3.61085 -3.5402 6.39399e-07
403 1 17.1262 -2.13985 -1.80335 -3.54018 9.25705e-07
404 1 16.7705 -0.365825 0.00414569 -3.54023 2.27537e-06
405 1 16.4144 1.40813 1.81165 -3.5403 1.14193e-05
406 1 18.897 -1.78541 -3.61085 -3.54023 1.41094e-06
407 1 18.5414 -0.0116749 -1.80335 -3.54026 4.5429e-06
408 1 18.1859 1.76179 0.00414597 -3.54028 8.1235e-06
409 1 17.8307 3.53473 1.81165 -3.54025 6.06272e-06
410 1 20.313 0.342263 -3.61085 -3.54026 3.87139e-06
411 1 19.958 2.11532 -1.80335 -3.54025 3.44487e-06
412 1 19.6033 3.88803 0.00414644 -3.54021 1.48596e-06
413 1 19.2489 5.6604 1.81165 -3.54019 5.77368e-07
414 1 21.7304 2.46892 -3.61085 -3.54023 1.32594e-06
415 1 21.376 4.24149 -1.80335 -3.54021 5.73636e-07
416 1 21.0217 6.01387 0.00414674 -3.54022 4.68064e-07
417 1 20.6675 7.78602 1.81165 -3.54023 1.02471e-06
418 1 23.1487 4.59509 -3.61085 -3.54022 4.37874e-07
419 1 22.7946 6.3674 -1.80335 -3.54023 4.94537e-07
420 1 22.4405 8.1395 0.00414698 -3.54023 6.63755e-07
421 1 22.0867 9.91135 1.81165 -3.54022 6.76917e-07
422 1 24.5675 6.72102 -3.61085 -3.54023 3.1907e-07
423 1 24.2136 8.49308 -1.80335 -3.54022 2.7005e-07
424 1 23.86 10.265 0.00414726 -3.54021 4.02237e-07
425 1 23.5064 12.0367 1.81165 -3.5402 1.03498e-06
426 1 25.9866 8.84683 -3.61085 -3.54022 1.80465e-07
427 1 25.633 10.6188 -1.80335 -3.54021 4.66149e-07
428 1 25.2793 12.3908 0.00414755 -3.5402 9.33235e-07
429 1 24.9256 14.1627 1.81165 -3.5402 1.22217e-06
430 1 27.4058 10.9728 -3.61085 -3.54021 5.05241e-07
431 1 27.052 12.7449 -1.80335 -3.54021 7.37792e-07
432 1 26.6981 14.5171 0.00414782 -3.54021 8.01207e-07
433 1 26.344 16.2893 1.81165 -3.54021 7.54586e-07
434 1 28.8244 13.0993 -3.61085 -3.54021 5.42271e-07
435 1 28.4704 14.8715 -1.80335 -3.54021 5.129e-07
436 1 28.1162 16.6439 0.0041481 -3.54021 4.75675e-07
437 1 27.7618 18.4163 1.81165 -3.54021 4.4596e-07
438 1 30.2426 15.2261 -3.61085 -3.54021 3.03268e-07
439 1 29.8883 16.9985 -1.80335 -3.54021 2.95726e-07
440 1 31.6603 17.3531 -3.61085 -3.54022 2.1257e-07
441 1 7.19426 -17.0375 1.81164 -3.53956 0.00145467
442 1 8.97621 -16.687 0.00414441 -3.53915 0.000961656
443 1 8.63106 -14.915 1.81164 -3.53976 0.000994921
444 1 11.0989 -18.1019 -3.61086 -3.53961 0.000207752
445 1 10.7504 -16.3317 -1.80336 -3.53969 0.000315459
446 1 10.3986 -14.558 0.00414452 -3.54038 0.000109107
447 1 10.0441 -12.7817 1.81164 -3.54094 0.000146104
448 1 12.5219 -15.9754 -3.61086 -3.54014 4.56884e-05
449 1 12.1683 -14.202 -1.80336 -3.54048 2.0641e-05
450 1 11.8147 -12.4281 0.00414488 -3.54057 4.2387e-05
451 1 11.4628 -10.6548 1.81164 -3.54022 1.61502e-05
452 1 13.9399 -13.8468 -3.61085 -3.54036 5.82843e-06
453 1 13.5868 -12.0741 -1.80335 -3.54026 6.69188e-06
454 1 13.2345 -10.301 0.00414509 -3.54009 2.82893e-05
455 1 12.8815 -8.52691 1.81165 -3.54005 4.05017e-05
456 1 15.3587 -11.7191 -3.61085 -3.54016 9.11657e-06
457 1 15.0052 -9.94581 -1.80335 -3.54015 1.56878e-05
458 1 14.6508 -8.17158 0.00414529 -3.54023 7.86743e-06
459 1 14.2955 -6.39675 1.81165 -3.54033 8.0195e-06
460 1 16.7757 -9.59026 -3.61085 -3.54021 4.48833e-06
461 1 16.4208 -7.81631 -1.80335 -3.54028 3.23191e-06
462 1 16.0656 -6.04213 0.00414551 -3.5403 4.2367e-06
463 1 15.7105 -4.26809 1.81165 -3.54024 1.27467e-06
464 1 18.1914 -7.46118 -3.61085 -3.54026 1.83179e-06
465 1 17.8363 -5.68749 -1.80335 -3.54024 1.31252e-06
466 1 17.4813 -3.91373 0.0041458 -3.5402 6.39399e-07
467 1 17.1262 -2.13985 1.81165 -3.54018 9.25705e-07
468 1 19.6074 -5.3327 -3.61085 -3.54022 7.38197e-07
469 1 19.2523 -3.55913 -1.80335 -3.54021 7.57879e-07
470 1 18.897 -1.78541 0.0041463 -3.54023 1.41094e-06
471 1 18.5414 -0.0116749 1.81165 -3.54026 4.5429e-06
472 1 21.0235 -3.2045 -3.61085 -3.54023 1.09376e-06
473 1 20.6682 -1.43107 -1.80335 -3.54025 2.36787e-06
474 1 20.313 0.342263 0.00414661 -3.54026 3.87139e-06
475 1 19.958 2.11532 1.81165 -3.54025 3.44487e-06
476 1 22.44 -1.07684 -3.61085 -3.54025 2.14923e-06
477 1 22.0851 0.696138 -1.80335 -3.54024 2.1784e-06
478 1 21.7304 2.46892 0.00414689 -3.54023 1.32594e-06
479 1 21.376 4.24149 1.81165 -3.54021 5.73636e-07
480 1 23.8574 1.05005 -3.61085 -3.54023 1.11559e-06
481 1 23.503 2.82263 -1.80335 -3.54022 6.66606e-07
482 1 23.1487 4.59509 0.00414713 -3.54022 4.37874e-07
483 1 22.7946 6.3674 1.81165 -3.54023 4.94537e-07
484 1 25.2756 3.17646 -3.61085 -3.54022 4.33665e-07
485 1 24.9215 4.9488 -1.80335 -3.54023 3.52508e-07
486 1 24.5675 6.72102 0.00414737 -3.54023 3.1907e-07
487 1 24.2136 8.49308 1.81165 -3.54022 2.7005e-07
488 1 26.6943 5.30261 -3.61085 -3.54023 2.18054e-07
489 1 26.3404 7.07477 -1.80335 -3.54022 1.54947e-07
490 1 25.9866 8.84683 0.00414767 -3.54022 1.80465e-07
491 1 25.633 10.6188 1.81165 -3.54021 4.66149e-07
492 1 28.1133 7.42867 -3.61085 -3.54022 1.10456e-07
493 1 27.7595 9.20076 -1.80335 -3.54021 2.36911e-07
494 1 27.4058 10.9728 0.00414795 -3.54021 5.05241e-07
495 1 27.052 12.7449 1.81165 -3.54021 7.37792e-07
496 1 29.5322 9.55486 -3.61085 -3.54021 3.04031e-07
497 1 29.1784 11.327 -1.80335 -3.54021 4.81144e-07
498 1 28.8244 13.0993 0.00414822 -3.54021 5.42271e-07
499 1 28.4704 14.8715 1.81165 -3.54021 5.129e-07
500 1 30.9508 11.6814 -3.61085 -3.54022 4.02279e-07
501 1 30.5968 13.4537 -1.80335 -3.54021 3.48985e-07
502 1 30.2426 15.2261 0.00414847 -3.54021 3.03268e-07
503 1 29.8883 16.9985 1.81165 -3.54021 2.95726e-07
504 1 32.369 13.8082 -3.61085 -3.54021 1.71463e-07
505 1 32.0147 15.5806 -1.80335 -3.54021 1.81276e-07
506 1 31.6603 17.3531 0.00414867 -3.54022 2.1257e-07
507 1 33.7868 15.9352 -3.61085 -3.54022 1.74102e-07
508 1 33.4323 17.7078 -1.80335 -3.54022 1.98496e-07
509 1 35.2043 18.0624 -3.61085 -3.54023 1.73206e-07
510 1 11.0989 -18.1019 0.00414479 -3.53961 0.000207752
511 1 10.7504 -16.3317 1.81164 -3.53969 0.000315459
512 1 12.8738 -17.7474 -1.80335 -3.53992 0.000101905
513 1 12.5219 -15.9754 0.00414496 -3.54014 4.56884e-05
514 1 12.1683 -14.202 1.81164 -3.54048 2.0641e-05
515 1 14.6468 -17.3917 -3.61085 -3.54015 2.42422e-05
516 1 14.2935 -15.6196 -1.80335 -3.5403 4.75079e-06
517 1 13.9399 -13.8468 0.00414515 -3.54036 5.82843e-06
518 1 13.5868 -12.0741 1.81165 -3.54026 6.69188e-06
519 1 16.0657 -15.2641 -3.61085 -3.54028 1.14661e-06
520 1 15.7121 -13.4918 -1.80335 -3.54024 2.09398e-06
521 1 15.3587 -11.7191 0.00414541 -3.54016 9.11657e-06
522 1 15.0052 -9.94581 1.81165 -3.54015 1.56878e-05
523 1 17.4842 -13.1364 -3.61085 -3.54019 3.45756e-06
524 1 17.1301 -11.3636 -1.80335 -3.54018 5.99549e-06
525 1 16.7757 -9.59026 0.00414569 -3.54021 4.48833e-06
526 1 16.4208 -7.81631 1.81165 -3.54028 3.23191e-06
527 1 18.9014 -11.008 -3.61085 -3.54021 2.14765e-06
528 1 18.5465 -9.23475 -1.80335 -3.54024 1.4975e-06
529 1 18.1914 -7.46118 0.00414597 -3.54026 1.83179e-06
530 1 17.8363 -5.68749 1.81165 -3.54024 1.31252e-06
531 1 20.3176 -8.87938 -3.61085 -3.54024 7.26955e-07
532 1 19.9625 -7.10612 -1.80335 -3.54024 8.44645e-07
533 1 19.6074 -5.3327 0.00414644 -3.54022 7.38197e-07
534 1 19.2523 -3.55913 1.81165 -3.54021 7.57879e-07
535 1 21.7339 -6.75107 -3.61085 -3.54022 4.78316e-07
536 1 21.3787 -4.97785 -1.80335 -3.54022 6.38041e-07
537 1 21.0235 -3.2045 0.00414674 -3.54023 1.09376e-06
538 1 20.6682 -1.43107 1.81165 -3.54025 2.36787e-06
539 1 23.1503 -4.62304 -3.61085 -3.54023 7.17048e-07
540 1 22.7951 -2.84994 -1.80335 -3.54024 1.38405e-06
541 1 22.44 -1.07684 0.00414698 -3.54025 2.14923e-06
542 1 22.0851 0.696138 1.81165 -3.54024 2.1784e-06
543 1 24.567 -2.49548 -3.61085 -3.54024 1.24323e-06
544 1 24.2121 -0.722665 -1.80335 -3.54024 1.41662e-06
545 1 23.8574 1.05005 0.00414726 -3.54023 1.11559e-06
546 1 23.503 2.82263 1.81165 -3.54022 6.66606e-07
547 1 25.9845 -0.368501 -3.61085 -3.54023 8.371e-07
548 1 25.63 1.40402 -1.80335 -3.54023 6.19153e-07
549 1 25.2756 3.17646 0.00414755 -3.54022 4.33665e-07
550 1 24.9215 4.9488 1.81165 -3.54023 3.52508e-07
551 1 27.4026 1.75805 -3.61085 -3.54022 3.60221e-07
552 1 27.0484 3.53036 -1.80335 -3.54023 2.77859e-07
553 1 26.6943 5.30261 0.00414782 -3.54023 2.18054e-07
554 1 26.3404 7.07477 1.81165 -3.54022 1.54947e-07
555 1 28.8212 3.88436 -3.61085 -3.54022 1.57806e-07
556 1 28.4672 5.65654 -1.80335 -3.54022 1.19905e-07
557 1 28.1133 7.42867 0.0041481 -3.54022 1.10456e-07
558 1 27.7595 9.20076 1.81165 -3.54021 2.36911e-07
559 1 30.24 6.0106 -3.61085 -3.54022 7.67707e-08
560 1 29.8861 7.78273 -1.80335 -3.54021 1.31724e-07
561 1 29.5322 9.55486 0.00414836 -3.54021 3.04031e-07
562 1 29.1784 11.327 1.81165 -3.54021 4.81144e-07
563 1 31.6588 8.13691 -3.61085 -3.54021 1.91119e-07
564 1 31.3048 9.9091 -1.80335 -3.54022 3.56587e-07
565 1 30.9508 11.6814 0.00414857 -3.54022 4.02279e-07
566 1 30.5968 13.4537 1.81165 -3.54021 3.48985e-07
567 1 33.0773 10.2635 -3.61085 -3.54022 3.53121e-07
568 1 32.7232 12.0358 -1.80335 -3.54021 2.46628e-07
569 1 32.369 13.8082 0.00414874 -3.54021 1.71463e-07
570 1 32.0147 15.5806 1.81165 -3.54021 1.81276e-07
571 1 34.4954 12.3903 -3.61085 -3.54021 6.42005e-08
572 1 34.1411 14.1627 -1.80335 -3.54021 8.06085e-08
573 1 33.7868 15.9352 0.00414888 -3.54022 1.74102e-07
574 1 33.4323 17.7078 1.81165 -3.54022 1.98496e-07
575 1 35.9133 14.5173 -3.61085 -3.54021 1.43021e-07
576 1 35.5589 16.2898 -1.80335 -3.54023 3.0284e-07