ITEM: TIMESTEP
0
ITEM: NUMBER OF ATOMS
2504
ITEM: BOX BOUNDS xy xz yz mm pp pp
-5.5498871899999997e+01 5.5498871899999997e+01 0.0000000000000000e+00
-1.8432957300000002e+01 1.8432957300000002e+01 0.0000000000000000e+00
-3.6150000000000002e+00 3.6150000000000002e+00 0.0000000000000000e+00
ITEM: ATOMS id type x y z c_eng c_csym
1 1 0.629365 16.7862 -3.59664 -3.43758 3.4875
2 1 0.293756 -18.259 -1.78914 -3.27884 8.98774
3 1 0.97185 13.0633 -3.59664 -3.50526 0.28438
4 1 0.836578 14.8239 -1.78914 -3.50398 0.580729
5 1 0.629365 16.7862 0.0183593 -3.43758 3.4875
6 1 0.293756 -18.259 1.82586 -3.27884 8.98774
7 1 2.56447 15.1867 -3.59664 -3.53983 0.117851
8 1 2.27906 17.0303 -1.78914 -3.51801 0.0882517
9 1 3.96359 17.3841 -3.59664 -3.54354 0.0311652
10 1 0.470219 7.38676 -3.59664 -3.52288 0.412432
11 1 0.130604 9.1223 -1.78914 -3.42128 1.25489
12 1 1.77962 9.58689 -3.59664 -3.51523 0.132939
13 1 1.3049 11.3581 -1.78914 -3.51717 0.251903
14 1 0.97185 13.0633 0.0183594 -3.50526 0.28438
15 1 0.836578 14.8239 1.82586 -3.50398 0.580729
16 1 3.16644 11.6889 -3.59664 -3.52829 0.0284804
17 1 2.86611 13.4081 -1.78914 -3.51845 0.0592232
18 1 2.56447 15.1867 0.0183594 -3.53983 0.117851
19 1 2.27906 17.0303 1.82586 -3.51801 0.0882517
20 1 4.66251 13.7807 -3.59664 -3.53378 0.0126102
21 1 4.32212 15.5583 -1.78914 -3.53766 0.0181962
22 1 3.96359 17.3841 0.0183594 -3.54354 0.0311652
23 1 6.07688 15.931 -3.59664 -3.54118 0.00377523
24 1 5.71662 17.7209 -1.78914 -3.54506 0.0166403
25 1 7.50518 18.0557 -3.59664 -3.54182 0.00447483
26 1 1.12591 3.78337 -3.59664 -3.5426 0.0527535
27 1 0.804782 5.57559 -1.78914 -3.54593 0.0177968
28 1 0.470219 7.38676 0.0183593 -3.52288 0.412306
29 1 0.130604 9.1223 1.82586 -3.42228 1.25489
30 1 2.55963 5.9464 -3.59664 -3.54097 0.0130032
31 1 2.21331 7.74066 -1.78914 -3.52467 0.0361485
32 1 1.77962 9.58689 0.0183594 -3.51523 0.132939
33 1 1.3049 11.3581 1.82586 -3.51721 0.251903
34 1 3.92778 8.13526 -3.59664 -3.54227 0.0120393
35 1 3.52822 9.93055 -1.78914 -3.54282 0.0462661
36 1 3.16644 11.6889 0.0183594 -3.52829 0.0284804
37 1 2.86611 13.4081 1.82586 -3.51845 0.0592232
38 1 5.32594 10.2685 -3.59664 -3.54126 0.00699144
39 1 4.99289 12.0223 -1.78914 -3.53436 0.00540051
40 1 4.66251 13.7807 0.0183603 -3.53378 0.0126102
41 1 4.32212 15.5583 1.82586 -3.53766 0.0181962
42 1 6.78475 12.3772 -3.59664 -3.53772 0.00248858
43 1 6.43737 14.1476 -1.78914 -3.53796 0.00198882
44 1 6.07688 15.931 0.0183603 -3.54118 0.00377523
45 1 5.71662 17.7209 1.82586 -3.54506 0.0166403
46 1 8.20854 14.5104 -3.59664 -3.54052 0.000517918
47 1 7.85108 16.285 -1.78914 -3.54164 0.00318493
48 1 7.50518 18.0557 0.0183603 -3.54182 0.00447483
49 1 9.63885 16.6321 -3.59664 -3.5408 0.00118683
50 1 9.30163 18.3946 -1.78914 -3.53984 0.000721396
51 1 0.49191 -1.85335 -3.59664 -3.52674 0.248506
52 1 0.16402 -0.140399 -1.78914 -3.46016 0.616308
53 1 1.91355 0.274038 -3.59664 -3.53201 0.0324689
54 1 1.50974 2.02896 -1.78914 -3.53404 0.0290402
55 1 1.12591 3.78337 0.0183594 -3.54261 0.0526272
56 1 0.804782 5.57559 1.82586 -3.545 0.0177968
57 1 3.29201 2.42228 -3.59664 -3.5365 0.00235585
58 1 2.92089 4.17634 -1.78914 -3.53816 0.00336796
59 1 2.55963 5.9464 0.0183594 -3.54097 0.0130032
60 1 2.21331 7.74066 1.82586 -3.52482 0.0361485
61 1 4.69585 4.56438 -3.59664 -3.53794 0.00123525
62 1 4.32118 6.33638 -1.78914 -3.53774 0.00453503
63 1 3.92778 8.13526 0.0183594 -3.54227 0.0120393
64 1 3.52822 9.93055 1.82586 -3.54282 0.0462661
65 1 6.07657 6.72321 -3.59664 -3.541 0.00242128
66 1 5.69056 8.5006 -1.78914 -3.54329 0.00994927
67 1 5.32594 10.2685 0.0183603 -3.54126 0.00699144
68 1 4.99289 12.0223 1.82586 -3.53436 0.00540051
69 1 7.47873 8.85664 -3.59664 -3.54086 0.00239274
70 1 7.12707 10.6156 -1.78914 -3.53886 0.000767262
71 1 6.78475 12.3772 0.0183603 -3.53772 0.00248858
72 1 6.43737 14.1476 1.82586 -3.53796 0.00198882
73 1 8.91716 10.9725 -3.59664 -3.53903 0.000431537
74 1 8.56502 12.738 -1.78914 -3.53939 0.000460601
75 1 8.20854 14.5104 0.0183603 -3.54052 0.000517918
76 1 7.85108 16.285 1.82586 -3.54164 0.00318493
77 1 10.3439 13.098 -3.59664 -3.54034 0.000128766
78 1 9.9882 14.8659 -1.78914 -3.54095 0.000808211
79 1 9.63885 16.6321 0.0183604 -3.5408 0.00118683
80 1 9.30163 18.3946 1.82586 -3.53984 0.000721396
81 1 11.7746 15.2179 -3.59664 -3.54052 0.000366207
82 1 11.4302 16.9798 -1.78914 -3.54002 0.000227873
83 1 13.2188 17.331 -3.59664 -3.53974 0.000174671
84 1 1.18364 -5.38653 -3.59664 -3.5376 0.101558
85 1 0.831835 -3.63959 -1.78914 -3.55077 0.042023
86 1 0.49191 -1.85335 0.0183593 -3.52674 0.248379
87 1 0.16402 -0.140399 1.82586 -3.46027 0.616308
88 1 2.62501 -3.24332 -3.59664 -3.54245 0.011121
89 1 2.28117 -1.50131 -1.78914 -3.5345 0.0129387
90 1 1.91355 0.274038 0.0183594 -3.53201 0.0324058
91 1 1.50974 2.02896 1.82586 -3.53423 0.0290402
92 1 4.0503 -1.10494 -3.59664 -3.5411 0.00219916
93 1 3.67242 0.6571 -1.78914 -3.54032 0.000713635
94 1 3.29201 2.42228 0.0183594 -3.5365 0.00235585
95 1 2.92089 4.17634 1.82586 -3.53831 0.00336796
96 1 5.44255 1.03933 -3.59664 -3.54109 0.000306778
97 1 5.06853 2.80032 -1.78914 -3.53943 0.000193117
98 1 4.69585 4.56438 0.0183603 -3.53794 0.00123525
99 1 4.32118 6.33638 1.82586 -3.53774 0.00453503
100 1 6.83984 3.17822 -3.59664 -3.53954 0.000336584
101 1 6.46225 4.94681 -1.78914 -3.53912 0.000485016
102 1 6.07657 6.72321 0.0183603 -3.541 0.00242128
103 1 5.69056 8.5006 1.82586 -3.54329 0.00994927
104 1 8.22793 5.32173 -3.59664 -3.54047 0.000799268
105 1 7.84825 7.09181 -1.78914 -3.54129 0.00262127
106 1 7.47873 8.85664 0.0183603 -3.54086 0.00239274
107 1 7.12707 10.6156 1.82586 -3.53886 0.000767262
108 1 9.6308 7.45099 -3.59664 -3.54043 0.000952067
109 1 9.27021 9.21193 -1.78914 -3.53957 0.000241864
110 1 8.91716 10.9725 0.0183604 -3.53903 0.000431537
111 1 8.56502 12.738 1.82586 -3.53939 0.000460601
112 1 11.0569 9.56867 -3.59664 -3.53951 7.4241e-05
113 1 10.7006 11.3318 -1.78914 -3.53966 7.03033e-05
114 1 10.3439 13.098 0.0183604 -3.54034 0.000128766
115 1 9.9882 14.8659 1.82586 -3.54095 0.000808211
116 1 12.4822 11.6894 -3.59664 -3.54012 4.45264e-05
117 1 12.1263 13.4541 -1.78914 -3.54049 0.000225923
118 1 11.7746 15.2179 0.0183612 -3.54052 0.000366207
119 1 11.4302 16.9798 1.82586 -3.54002 0.000227873
120 1 13.9111 13.8076 -3.59664 -3.5403 0.000123604
121 1 13.5624 15.5696 -1.78914 -3.54009 8.34304e-05
122 1 13.2188 17.331 0.0183613 -3.53974 0.000174671
123 1 15.3481 15.9225 -3.59664 -3.53991 7.02767e-05
124 1 15.0028 17.6854 -1.78914 -3.53976 0.000203734
125 1 16.7826 18.0419 -3.59664 -3.53989 0.00015773
126 1 0.7159 -10.892 -3.59664 -3.46397 2.76096
127 1 0.447022 -9.13092 -1.78914 -3.30173 8.10682
128 1 2.10067 -8.80126 -3.59664 -3.49727 0.302852
129 1 1.65372 -7.04285 -1.78914 -3.49339 0.284159
130 1 1.18364 -5.38653 0.0183594 -3.5376 0.101432
131 1 0.831835 -3.63959 1.82586 -3.54994 0.042023
132 1 3.41932 -6.69146 -3.59664 -3.52911 0.060273
133 1 3.01873 -4.95466 -1.78914 -3.52946 0.029007
134 1 2.62501 -3.24332 0.0183594 -3.54245 0.011121
135 1 2.28117 -1.50131 1.82586 -3.53472 0.0129387
136 1 4.80427 -4.59319 -3.59664 -3.53518 0.0142408
137 1 4.42873 -2.85025 -1.78914 -3.53556 0.00616025
138 1 4.0503 -1.10494 0.0183602 -3.5411 0.00219916
139 1 3.67242 0.6571 1.82586 -3.54039 0.000713635
140 1 6.20214 -2.47877 -3.59664 -3.53761 0.00422043
141 1 5.82284 -0.719411 -1.78914 -3.53971 0.00126222
142 1 5.44255 1.03933 0.0183603 -3.54109 0.000306778
143 1 5.06853 2.80032 1.82586 -3.53943 0.000193117
144 1 7.59138 -0.349895 -3.59664 -3.53943 0.00137043
145 1 7.21553 1.41431 -1.78914 -3.53969 0.00054497
146 1 6.83984 3.17822 0.0183603 -3.53954 0.000336584
147 1 6.46225 4.94681 1.82586 -3.53912 0.000485016
148 1 8.98381 1.78172 -3.59664 -3.53938 0.000596956
149 1 8.60776 3.55114 -1.78914 -3.53963 0.000356054
150 1 8.22793 5.32173 0.0183603 -3.54047 0.000799268
151 1 7.84825 7.09181 1.82586 -3.54129 0.00262127
152 1 10.3753 3.91586 -3.59664 -3.54005 0.000561099
153 1 10.0007 5.68566 -1.78914 -3.54055 0.00100238
154 1 9.6308 7.45099 0.0183604 -3.54043 0.000952067
155 1 9.27021 9.21193 1.82586 -3.53957 0.000241864
156 1 11.7783 6.04196 -3.59664 -3.5402 0.000545566
157 1 11.4152 7.8065 -1.78914 -3.53984 0.000226736
158 1 11.0569 9.56867 0.0183612 -3.53951 7.4241e-05
159 1 10.7006 11.3318 1.82586 -3.53966 7.03033e-05
160 1 13.1973 8.16047 -3.59664 -3.53977 0.000100703
161 1 12.8394 9.92491 -1.78914 -3.53979 4.26549e-05
162 1 12.4822 11.6894 0.0183612 -3.54012 4.45264e-05
163 1 12.1263 13.4541 1.82586 -3.54049 0.000225923
164 1 14.6201 10.2792 -3.59664 -3.54005 6.05634e-05
165 1 14.2643 12.0441 -1.78914 -3.54024 9.39259e-05
166 1 13.9111 13.8076 0.0183613 -3.5403 0.000123604
167 1 13.5624 15.5696 1.82586 -3.54009 8.34304e-05
168 1 16.0468 12.3966 -3.59664 -3.54019 6.73016e-05
169 1 15.6959 14.16 -1.78914 -3.54009 4.44652e-05
170 1 15.3481 15.9225 0.0183614 -3.53991 7.02767e-05
171 1 15.0028 17.6854 1.82586 -3.53976 0.000203734
172 1 17.4787 14.5127 -3.59664 -3.54 4.34278e-05
173 1 17.1304 16.2768 -1.78914 -3.5399 9.58084e-05
174 1 16.7826 18.0419 0.0183614 -3.53989 0.00015773
175 1 18.9092 16.6321 -3.59664 -3.53997 8.74356e-05
176 1 18.5592 18.3992 -1.78914 -3.54001 9.73957e-05
177 1 1.00366 -14.5238 -3.59664 -3.48752 0.454339
178 1 0.894959 -12.7821 -1.78914 -3.52574 0.44958
179 1 0.7159 -10.892 0.0183593 -3.46397 2.76096
180 1 0.447022 -9.13092 1.82586 -3.29992 8.10682
181 1 2.66725 -12.4585 -3.59664 -3.54257 0.126655
182 1 2.42167 -10.6625 -1.78914 -3.5317 0.090329
183 1 2.10067 -8.80126 0.0183594 -3.49727 0.302789
184 1 1.65372 -7.04285 1.82586 -3.49398 0.284159
185 1 4.135 -10.3122 -3.59664 -3.5439 0.0227032
186 1 3.79176 -8.49543 -1.78914 -3.53982 0.0114827
187 1 3.41932 -6.69146 0.0183594 -3.52911 0.060273
188 1 3.01873 -4.95466 1.82586 -3.52959 0.029007
189 1 5.5238 -8.1581 -3.59664 -3.54365 0.00274582
190 1 5.16955 -6.36564 -1.78914 -3.54003 0.00506654
191 1 4.80427 -4.59319 0.0183603 -3.53518 0.0142408
192 1 4.42873 -2.85025 1.82586 -3.53556 0.00616025
193 1 6.92477 -6.02709 -3.59664 -3.54096 0.000313814
194 1 6.56943 -4.24782 -1.78914 -3.53862 0.00260696
195 1 6.20214 -2.47877 0.0183603 -3.53761 0.00422043
196 1 5.82284 -0.719411 1.82586 -3.53971 0.00126222
197 1 8.32755 -3.89864 -3.59664 -3.53991 0.00039593
198 1 7.96369 -2.12069 -1.78914 -3.5394 0.0012637
199 1 7.59138 -0.349895 0.0183603 -3.53943 0.00137043
200 1 7.21553 1.41431 1.82586 -3.53969 0.00054497
201 1 9.72313 -1.76624 -3.59664 -3.54003 0.00029457
202 1 9.35582 0.0101196 -1.78914 -3.5396 0.000628741
203 1 8.98381 1.78172 0.0183604 -3.53938 0.000596956
204 1 8.60776 3.55114 1.82586 -3.53963 0.000356054
205 1 11.1181 0.366559 -3.59664 -3.53984 0.000222245
206 1 10.7487 2.14269 -1.78914 -3.53972 0.000375302
207 1 10.3753 3.91586 0.0183612 -3.54005 0.000561099
208 1 10.0007 5.68566 1.82586 -3.54055 0.00100238
209 1 12.5139 2.49874 -3.59664 -3.54012 0.000291083
210 1 12.1455 4.27275 -1.78914 -3.54024 0.000534
211 1 11.7783 6.04196 0.0183612 -3.5402 0.000545566
212 1 11.4152 7.8065 1.82586 -3.53984 0.000226736
213 1 13.9183 4.62493 -3.59664 -3.54022 0.000297716
214 1 13.5567 6.39442 -1.78914 -3.53999 0.000217431
215 1 13.1973 8.16047 0.0183613 -3.53977 0.000100703
216 1 12.8394 9.92491 1.82586 -3.53979 4.26549e-05
217 1 15.3342 6.74531 -3.59664 -3.54 9.30194e-05
218 1 14.9769 8.51308 -1.78914 -3.53993 6.91813e-05
219 1 14.6201 10.2792 0.0183613 -3.54005 6.05634e-05
220 1 14.2643 12.0441 1.82586 -3.54024 9.39259e-05
221 1 16.7552 8.86438 -3.59664 -3.5401 5.52229e-05
222 1 16.4002 10.6314 -1.78914 -3.54016 6.70931e-05
223 1 16.0468 12.3966 0.0183614 -3.54019 6.73016e-05
224 1 15.6959 14.16 1.82586 -3.54009 4.44652e-05
225 1 18.18 10.9823 -3.59664 -3.54018 4.36669e-05
226 1 17.8285 12.7482 -1.78914 -3.54012 3.62478e-05
227 1 17.4787 14.5127 0.0183615 -3.54 4.34278e-05
228 1 17.1304 16.2768 1.82586 -3.5399 9.58084e-05
229 1 19.6084 13.0998 -3.59664 -3.54008 3.00818e-05
230 1 19.2587 14.8659 -1.78914 -3.54 5.53055e-05
231 1 18.9092 16.6321 0.0183615 -3.53997 8.74356e-05
232 1 18.5592 18.3992 1.82586 -3.54001 9.73957e-05
233 1 21.0361 15.2198 -3.59664 -3.54005 5.21627e-05
234 1 20.6853 16.9879 -1.78914 -3.54005 6.27345e-05
235 1 22.4594 17.3438 -3.59664 -3.54011 4.01588e-05
236 1 1.89372 -17.9137 -3.59664 -3.45181 0.611432
237 1 1.37221 -16.1344 -1.78914 -3.44238 0.673209
238 1 1.00366 -14.5238 0.0183594 -3.48752 0.454339
239 1 0.894959 -12.7821 1.82586 -3.52574 0.44958
240 1 3.25769 -15.8662 -3.59664 -3.51747 0.0944581
241 1 2.95894 -14.1752 -1.78914 -3.50892 0.0616715
242 1 2.66725 -12.4585 0.0183594 -3.54257 0.126655
243 1 2.42167 -10.6625 1.82586 -3.53177 0.090329
244 1 4.78196 -13.8414 -3.59664 -3.53037 0.0205384
245 1 4.46581 -12.096 -1.78914 -3.53508 0.0222451
246 1 4.135 -10.3122 0.0183602 -3.5439 0.0227032
247 1 3.79176 -8.49543 1.82586 -3.53989 0.0114827
248 1 6.2297 -11.7325 -3.59664 -3.5377 0.00407775
249 1 5.87829 -9.95096 -1.78914 -3.54197 0.00191833
250 1 5.5238 -8.1581 0.0183603 -3.54365 0.00274582
251 1 5.16955 -6.36564 1.82586 -3.54003 0.00506654
252 1 7.63224 -9.59445 -3.59664 -3.54057 0.00013986
253 1 7.27751 -7.81099 -1.78914 -3.54154 0.000438592
254 1 6.92477 -6.02709 0.0183603 -3.54096 0.000313814
255 1 6.56943 -4.24782 1.82586 -3.53862 0.00260696
256 1 9.03743 -7.46085 -3.59664 -3.54034 1.98275e-05
257 1 8.68391 -5.67973 -1.78914 -3.54034 8.59443e-05
258 1 8.32755 -3.89864 0.0183603 -3.53991 0.00039593
259 1 7.96369 -2.12069 1.82586 -3.5394 0.0012637
260 1 10.4435 -5.32801 -3.59664 -3.54009 5.38273e-05
261 1 10.0855 -3.54651 -1.78914 -3.5402 8.50344e-05
262 1 9.72313 -1.76624 0.0183604 -3.54003 0.00029457
263 1 9.35582 0.0101196 1.82586 -3.5396 0.000628741
264 1 11.8448 -3.19315 -3.59664 -3.54017 3.14789e-05
265 1 11.4832 -1.41235 -1.78914 -3.5401 8.03008e-05
266 1 11.1181 0.366559 0.0183612 -3.53984 0.000222245
267 1 10.7487 2.14269 1.82586 -3.53972 0.000375302
268 1 13.2444 -1.05852 -3.59664 -3.54011 3.81554e-05
269 1 12.8805 0.721173 -1.78914 -3.54007 0.000111587
270 1 12.5139 2.49874 0.0183612 -3.54012 0.000291083
271 1 12.1455 4.27275 1.82586 -3.54024 0.000534
272 1 14.6449 1.07418 -3.59664 -3.54024 0.000110092
273 1 14.2815 2.85128 -1.78914 -3.54028 0.000228431
274 1 13.9183 4.62493 0.0183613 -3.54022 0.000297716
275 1 13.5567 6.39442 1.82586 -3.53999 0.000217431
276 1 16.0516 3.20188 -3.59664 -3.54028 0.000136613
277 1 15.6923 4.97508 -1.78914 -3.54016 0.000126599
278 1 15.3342 6.74531 0.0183614 -3.54 9.30194e-05
279 1 14.9769 8.51308 1.82586 -3.53993 6.91813e-05
280 1 17.4667 5.32467 -3.59664 -3.54016 5.41501e-05
281 1 17.1107 7.09549 -1.78914 -3.54009 4.90024e-05
282 1 16.7552 8.86438 0.0183614 -3.5401 5.52229e-05
283 1 16.4002 10.6314 1.82586 -3.54016 6.70931e-05
284 1 18.8868 7.44533 -3.59664 -3.54018 3.10373e-05
285 1 18.533 9.21474 -1.78914 -3.54019 3.98716e-05
286 1 18.18 10.9823 0.0183615 -3.54018 4.36669e-05
287 1 17.8285 12.7482 1.82586 -3.54012 3.62478e-05
288 1 20.3105 9.56477 -3.59664 -3.54021 2.15689e-05
289 1 19.959 11.333 -1.78914 -3.54016 2.26465e-05
290 1 19.6084 13.0998 0.0183624 -3.54008 3.00818e-05
291 1 19.2587 14.8659 1.82586 -3.54 5.53055e-05
292 1 21.7367 11.6839 -3.59664 -3.54014 1.59813e-05
293 1 21.3864 13.4521 -1.78914 -3.54008 3.17217e-05
294 1 21.0361 15.2198 0.0183624 -3.54005 5.21627e-05
295 1 20.6853 16.9879 1.82586 -3.54005 6.27345e-05
296 1 23.1624 13.805 -3.59664 -3.54011 2.94491e-05
297 1 22.8113 15.5742 -1.78914 -3.5401 3.96739e-05
298 1 22.4594 17.3438 0.0183625 -3.54011 4.01588e-05
299 1 24.5849 15.929 -3.59664 -3.54014 2.67504e-05
300 1 24.2321 17.6998 -1.78914 -3.54015 2.44557e-05
301 1 26.0038 18.0557 -3.59664 -3.54017 1.45308e-05
302 1 1.89372 -17.9137 0.0183594 -3.45181 0.611432
303 1 1.37221 -16.1344 1.82586 -3.44238 0.673209
304 1 3.60001 -17.6498 -1.78914 -3.54093 0.0734741
305 1 3.25769 -15.8662 0.0183594 -3.51747 0.0944581
306 1 2.95894 -14.1752 1.82586 -3.50892 0.0616715
307 1 5.38151 -17.3593 -3.59664 -3.54429 0.0142448
308 1 5.08142 -15.5928 -1.78914 -3.53567 0.00809951
309 1 4.78196 -13.8414 0.0183603 -3.53037 0.0205384
310 1 4.46581 -12.096 1.82586 -3.53508 0.0222451
311 1 6.87467 -15.2785 -3.59664 -3.53845 0.00469966
312 1 6.56277 -13.508 -1.78914 -3.53658 0.00781499
313 1 6.2297 -11.7325 0.0183603 -3.5377 0.00407775
314 1 5.87829 -9.95096 1.82586 -3.54197 0.00191833
315 1 8.32606 -13.1623 -3.59664 -3.53922 0.00222986
316 1 7.98465 -11.3786 -1.78914 -3.53955 0.000588907
317 1 7.63224 -9.59445 0.0183603 -3.54057 0.00013986
318 1 7.27751 -7.81099 1.82586 -3.54154 0.000438592
319 1 9.74112 -11.0266 -3.59664 -3.54032 0.000124627
320 1 9.39039 -9.24282 -1.78914 -3.54025 4.19398e-05
321 1 9.03743 -7.46085 0.0183604 -3.54034 1.98275e-05
322 1 8.68391 -5.67973 1.82586 -3.54034 8.59443e-05
323 1 11.1507 -8.89127 -3.59664 -3.54021 3.09179e-05
324 1 10.7983 -7.10946 -1.78914 -3.54003 2.6947e-05
325 1 10.4435 -5.32801 0.0183612 -3.54009 5.38273e-05
326 1 10.0855 -3.54651 1.82586 -3.5402 8.50344e-05
327 1 12.5593 -6.75647 -3.59664 -3.54007 3.6581e-05
328 1 12.2035 -4.97476 -1.78914 -3.54009 3.07537e-05
329 1 11.8448 -3.19315 0.0183612 -3.54017 3.14789e-05
330 1 11.4832 -1.41235 1.82586 -3.5401 8.03008e-05
331 1 13.9644 -4.62071 -3.59664 -3.54014 2.09827e-05
332 1 13.6055 -2.83936 -1.78914 -3.54014 1.90459e-05
333 1 13.2444 -1.05852 0.0183613 -3.54011 3.81554e-05
334 1 12.8805 0.721173 1.82586 -3.54007 0.000111587
335 1 15.3678 -2.48538 -3.59664 -3.54017 2.02968e-05
336 1 15.0071 -0.705068 -1.78914 -3.54019 4.22343e-05
337 1 14.6449 1.07418 0.0183613 -3.54024 0.000110092
338 1 14.2815 2.85128 1.82586 -3.54028 0.000228431
339 1 16.7721 -0.352212 -3.59664 -3.54027 5.67605e-05
340 1 16.4118 1.42586 -1.78914 -3.5403 0.000102094
341 1 16.0516 3.20188 0.0183614 -3.54028 0.000136613
342 1 15.6923 4.97508 1.82586 -3.54016 0.000126599
343 1 18.1811 1.77678 -3.59664 -3.5403 7.23218e-05
344 1 17.8235 3.55175 -1.78914 -3.54025 6.83441e-05
345 1 17.4667 5.32467 0.0183615 -3.54016 5.41501e-05
346 1 17.1107 7.09549 1.82586 -3.54009 4.90024e-05
347 1 19.5963 3.90162 -3.59664 -3.54023 3.47458e-05
348 1 19.2413 5.67425 -1.78914 -3.54019 2.82788e-05
349 1 18.8868 7.44533 0.0183623 -3.54018 3.10373e-05
350 1 18.533 9.21474 1.82586 -3.54019 3.98716e-05
351 1 21.0161 6.02406 -3.59664 -3.54023 1.74733e-05
352 1 20.6629 7.79511 -1.78914 -3.54022 1.90241e-05
353 1 20.3105 9.56477 0.0183624 -3.54021 2.15689e-05
354 1 19.959 11.333 1.82586 -3.54016 2.26465e-05
355 1 22.4389 8.14517 -3.59664 -3.54023 9.34051e-06
356 1 22.0875 9.91507 -1.78914 -3.5402 9.9625e-06
357 1 21.7367 11.6839 0.0183625 -3.54014 1.59813e-05
358 1 21.3864 13.4521 1.82586 -3.54008 3.17217e-05
359 1 23.8637 10.266 -3.59664 -3.54018 6.9405e-06
360 1 23.513 12.0356 -1.78914 -3.54014 1.60134e-05
361 1 23.1624 13.805 0.0183625 -3.54011 2.94491e-05
362 1 22.8113 15.5742 1.82586 -3.5401 3.96739e-05
363 1 25.288 12.3881 -3.59664 -3.54015 1.57449e-05
364 1 24.9368 14.1585 -1.78914 -3.54014 2.34385e-05
365 1 24.5849 15.929 0.0183626 -3.54014 2.67504e-05
366 1 24.2321 17.6998 1.82586 -3.54015 2.44557e-05
367 1 26.71 14.5126 -3.59664 -3.54016 1.67801e-05
368 1 26.3573 16.284 -1.78914 -3.54017 1.68651e-05
369 1 26.0038 18.0557 0.0183627 -3.54017 1.45308e-05
370 1 28.1291 16.6391 -3.59664 -3.54018 1.01878e-05
371 1 27.775 18.4115 -1.78914 -3.54019 8.4244e-06
372 1 3.60001 -17.6498 1.82586 -3.54093 0.0734741
373 1 5.38151 -17.3593 0.0183603 -3.54429 0.0142448
374 1 5.08142 -15.5928 1.82586 -3.53567 0.00809951
375 1 7.1822 -17.045 -1.78914 -3.54033 0.00260666
376 1 6.87467 -15.2785 0.0183603 -3.53845 0.00469966
377 1 6.56277 -13.508 1.82586 -3.53658 0.00781499
378 1 8.97601 -16.7089 -3.59664 -3.53914 0.00183436
379 1 8.65432 -14.9403 -1.78914 -3.53907 0.0032986
380 1 8.32606 -13.1623 0.0183603 -3.53922 0.00222986
381 1 7.98465 -11.3786 1.82586 -3.53955 0.000588907
382 1 10.4264 -14.5891 -3.59664 -3.53966 0.00143108
383 1 10.0869 -12.8102 -1.78914 -3.54016 0.000661124
384 1 9.74112 -11.0266 0.0183604 -3.54032 0.000124627
385 1 9.39039 -9.24282 1.82586 -3.54025 4.19398e-05
386 1 11.8498 -12.4547 -3.59664 -3.54038 0.000255096
387 1 11.5013 -10.6735 -1.78914 -3.54042 9.86876e-05
388 1 11.1507 -8.89127 0.0183612 -3.54021 3.09179e-05
389 1 10.7983 -7.10946 1.82586 -3.54003 2.6947e-05
390 1 13.2644 -10.3185 -3.59664 -3.54034 8.65696e-05
391 1 12.9126 -8.53788 -1.78914 -3.5402 5.16107e-05
392 1 12.5593 -6.75647 0.0183612 -3.54007 3.6581e-05
393 1 12.2035 -4.97476 1.82586 -3.54009 3.07537e-05
394 1 14.6758 -8.18254 -3.59664 -3.54021 5.34301e-05
395 1 14.321 -6.40198 -1.78914 -3.54016 3.48931e-05
396 1 13.9644 -4.62071 0.0183613 -3.54014 2.09827e-05
397 1 13.6055 -2.83936 1.82586 -3.54014 1.90459e-05
398 1 16.084 -6.04639 -3.59664 -3.54021 2.97516e-05
399 1 15.7267 -4.26603 -1.78914 -3.54019 1.99824e-05
400 1 15.3678 -2.48538 0.0183614 -3.54017 2.02968e-05
401 1 15.0071 -0.705068 1.82586 -3.54019 4.22343e-05
402 1 17.4907 -3.91095 -3.59664 -3.54023 2.26366e-05
403 1 17.1318 -2.13142 -1.78914 -3.54023 3.02255e-05
404 1 16.7721 -0.352212 0.0183614 -3.54027 5.67605e-05
405 1 16.4118 1.42586 1.82586 -3.5403 0.000102094
406 1 18.898 -1.77763 -3.59664 -3.54028 3.90648e-05
407 1 18.5394 0.000118035 -1.78914 -3.5403 5.81344e-05
408 1 18.1811 1.77678 0.0183615 -3.5403 7.23218e-05
409 1 17.8235 3.55175 1.82586 -3.54025 6.83441e-05
410 1 20.3089 0.352178 -3.59664 -3.5403 4.64341e-05
411 1 19.9522 2.12753 -1.78914 -3.54028 4.41923e-05
412 1 19.5963 3.90162 0.0183624 -3.54023 3.47458e-05
413 1 19.2413 5.67425 1.82586 -3.54019 2.82788e-05
414 1 21.7246 2.47845 -3.59664 -3.54026 2.67828e-05
415 1 21.3699 4.25179 -1.78914 -3.54024 2.02908e-05
416 1 21.0161 6.02406 0.0183624 -3.54023 1.74733e-05
417 1 20.6629 7.79511 1.82586 -3.54022 1.90241e-05
418 1 23.1441 4.60237 -3.59664 -3.54025 1.28603e-05
419 1 22.7911 6.37424 -1.78914 -3.54024 1.04089e-05
420 1 22.4389 8.14517 0.0183625 -3.54023 9.34051e-06
421 1 22.0875 9.91507 1.82586 -3.5402 9.9625e-06
422 1 24.5663 6.72494 -3.59664 -3.54024 5.21488e-06
423 1 24.2147 8.49581 -1.78914 -3.54022 4.17906e-06
424 1 23.8637 10.266 0.0183626 -3.54018 6.9405e-06
425 1 23.513 12.0356 1.82586 -3.54014 1.60134e-05
426 1 25.99 8.84718 -3.59664 -3.54021 3.33404e-06
427 1 25.639 10.6178 -1.78914 -3.54018 7.85036e-06
428 1 25.288 12.3881 0.0183626 -3.54015 1.57449e-05
429 1 24.9368 14.1585 1.82586 -3.54014 2.34385e-05
430 1 27.4134 10.9703 -3.59664 -3.54018 8.77364e-06
431 1 27.0619 12.7414 -1.78914 -3.54017 1.36959e-05
432 1 26.71 14.5126 0.0183627 -3.54016 1.67801e-05
433 1 26.3573 16.284 1.82586 -3.54017 1.68651e-05
434 1 28.8349 13.0952 -3.59664 -3.54018 1.06819e-05
435 1 28.4823 14.867 -1.78914 -3.54018 1.11596e-05
436 1 28.1291 16.6391 0.0183628 -3.54018 1.01878e-05
437 1 27.775 18.4115 1.82586 -3.54019 8.4244e-06
438 1 30.2541 15.2218 -3.59664 -3.54019 7.00424e-06
439 1 29.9003 16.9944 -1.78914 -3.5402 6.00129e-06
440 1 31.6713 17.3496 -3.59664 -3.54021 3.56754e-06
441 1 7.1822 -17.045 1.82586 -3.54033 0.00260666
442 1 8.97601 -16.7089 0.0183604 -3.53914 0.00183436
443 1 8.65432 -14.9403 1.82586 -3.53907 0.0032986
444 1 11.0934 -18.1247 -3.59664 -3.53939 0.000523317
445 1 10.7605 -16.3603 -1.78914 -3.53924 0.00133584
446 1 10.4264 -14.5891 0.0183604 -3.53966 0.00143108
447 1 10.0869 -12.8102 1.82586 -3.54016 0.000661124
448 1 12.5382 -16.0049 -3.59664 -3.53965 0.000683598
449 1 12.1956 -14.2324 -1.78914 -3.54003 0.000512137
450 1 11.8498 -12.4547 0.0183612 -3.54038 0.000255096
451 1 11.5013 -10.6735 1.82586 -3.54042 9.86876e-05
452 1 13.9645 -13.8737 -3.59664 -3.54018 0.000188303
453 1 13.615 -12.0974 -1.78914 -3.54034 0.000124948
454 1 13.2644 -10.3185 0.0183613 -3.54034 8.65696e-05
455 1 12.9126 -8.53788 1.82586 -3.5402 5.16107e-05
456 1 15.3818 -11.7391 -3.59664 -3.54027 6.91551e-05
457 1 15.0292 -9.96176 -1.78914 -3.54026 6.55691e-05
458 1 14.6758 -8.18254 0.0183613 -3.54021 5.34301e-05
459 1 14.321 -6.40198 1.82586 -3.54016 3.48931e-05
460 1 16.7951 -9.60392 -3.59664 -3.54022 4.33188e-05
461 1 16.4401 -7.82586 -1.78914 -3.54022 4.02759e-05
462 1 16.084 -6.04639 0.0183614 -3.54021 2.97516e-05
463 1 15.7267 -4.26603 1.82586 -3.54019 1.99824e-05
464 1 18.2055 -7.46848 -3.59664 -3.54022 2.60496e-05
465 1 17.8485 -5.69014 -1.78914 -3.54023 2.39329e-05
466 1 17.4907 -3.91095 0.0183615 -3.54023 2.26366e-05
467 1 17.1318 -2.13142 1.82586 -3.54023 3.02255e-05
468 1 19.6145 -5.33369 -3.59664 -3.54025 2.00042e-05
469 1 19.2565 -3.55577 -1.78914 -3.54026 2.63622e-05
470 1 18.898 -1.77763 0.0183623 -3.54028 3.90648e-05
471 1 18.5394 0.000118035 1.82586 -3.5403 5.81344e-05
472 1 21.0241 -3.20076 -3.59664 -3.54028 2.81139e-05
473 1 20.6663 -1.42408 -1.78914 -3.5403 3.91475e-05
474 1 20.3089 0.352178 0.0183624 -3.5403 4.64341e-05
475 1 19.9522 2.12753 1.82586 -3.54028 4.41923e-05
476 1 22.4364 -1.07071 -3.59664 -3.54029 3.20686e-05
477 1 22.08 0.704217 -1.78914 -3.54028 3.22847e-05
478 1 21.7246 2.47845 0.0183625 -3.54026 2.67828e-05
479 1 21.3699 4.25179 1.82586 -3.54024 2.02908e-05
480 1 23.8524 1.05639 -3.59664 -3.54027 2.12428e-05
481 1 23.4978 2.8297 -1.78914 -3.54026 1.69341e-05
482 1 23.1441 4.60237 0.0183625 -3.54025 1.28603e-05
483 1 22.7911 6.37424 1.82586 -3.54024 1.04089e-05
484 1 25.2717 3.18132 -3.59664 -3.54025 1.06007e-05
485 1 24.9186 4.95341 -1.78914 -3.54025 7.664e-06
486 1 24.5663 6.72494 0.0183626 -3.54024 5.21488e-06
487 1 24.2147 8.49581 1.82586 -3.54022 4.17906e-06
488 1 26.6933 5.30498 -3.59664 -3.54024 3.99927e-06
489 1 26.3413 7.07627 -1.78914 -3.54023 2.59621e-06
490 1 25.99 8.84718 0.0183627 -3.54021 3.33404e-06
491 1 25.639 10.6178 1.82586 -3.54018 7.85036e-06
492 1 28.1161 7.4283 -3.59664 -3.54021 2.17084e-06
493 1 27.7647 9.19935 -1.78914 -3.5402 4.37684e-06
494 1 27.4134 10.9703 0.0183627 -3.54018 8.77364e-06
495 1 27.0619 12.7414 1.82586 -3.54017 1.36959e-05
496 1 29.5388 9.55225 -3.59664 -3.54019 5.39113e-06
497 1 29.187 11.3236 -1.78914 -3.54019 8.51236e-06
498 1 28.8349 13.0952 0.0183628 -3.54018 1.06819e-05
499 1 28.4823 14.867 1.82586 -3.54018 1.11596e-05
500 1 30.96 11.6775 -3.59664 -3.54019 7.22679e-06
501 1 30.6073 13.4495 -1.78914 -3.54019 7.55615e-06
502 1 30.2541 15.2218 0.0183629 -3.54019 7.00424e-06
503 1 29.9003 16.9944 1.82586 -3.5402 6.00129e-06
504 1 32.3792 13.8041 -3.59664 -3.5402 4.83636e-06
505 1 32.0255 15.5768 -1.78914 -3.5402 4.27315e-06
506 1 31.6713 17.3496 0.0183629 -3.54021 3.56754e-06
507 1 33.7967 15.9318 -3.59664 -3.54021 2.80403e-06
508 1 33.4421 17.7049 -1.78914 -3.54022 2.19526e-06
509 1 35.213 18.0601 -3.59664 -3.54023 1.23446e-06
510 1 11.0934 -18.1247 0.0183612 -3.53939 0.000523317
511 1 10.7605 -16.3603 1.82586 -3.53924 0.00133584
512 1 12.8784 -17.7719 -1.78914 -3.53953 0.00050216
513 1 12.5382 -16.0049 0.0183612 -3.53965 0.000683598
514 1 12.1956 -14.2324 1.82586 -3.54003 0.000512137
515 1 14.6581 -17.4153 -3.59664 -3.53978 0.000320457
516 1 14.3123 -15.6465 -1.78914 -3.53995 0.000290025
517 1 13.9645 -13.8737 0.0183613 -3.54018 0.000188303
518 1 13.615 -12.0974 1.82586 -3.54034 0.000124948
519 1 16.0846 -15.287 -3.59664 -3.54011 0.000118788
520 1 15.7337 -13.5144 -1.78914 -3.54022 8.05385e-05
521 1 15.3818 -11.7391 0.0183614 -3.54027 6.91551e-05
522 1 15.0292 -9.96176 1.82586 -3.54026 6.55691e-05
523 1 17.5031 -13.1548 -3.59664 -3.54021 3.98274e-05
524 1 17.1494 -11.3803 -1.78914 -3.54023 4.00776e-05
525 1 16.7951 -9.60392 0.0183614 -3.54022 4.33188e-05
526 1 16.4401 -7.82586 1.82586 -3.54022 4.02759e-05
527 1 18.9175 -11.0212 -3.59664 -3.54021 2.24161e-05
528 1 18.5618 -9.24557 -1.78914 -3.54022 2.52725e-05
529 1 18.2055 -7.46848 0.0183615 -3.54022 2.60496e-05
530 1 17.8485 -5.69014 1.82586 -3.54023 2.39329e-05
531 1 20.3293 -8.88719 -3.59664 -3.54022 1.34301e-05
532 1 19.9722 -7.11093 -1.78914 -3.54023 1.63085e-05
533 1 19.6145 -5.33369 0.0183624 -3.54025 2.00042e-05
534 1 19.2565 -3.55577 1.82586 -3.54026 2.63622e-05
535 1 21.7399 -6.75358 -3.59664 -3.54024 1.15146e-05
536 1 21.382 -4.97739 -1.78914 -3.54026 1.8438e-05
537 1 21.0241 -3.20076 0.0183624 -3.54028 2.81139e-05
538 1 20.6663 -1.42408 1.82586 -3.5403 3.91475e-05
539 1 23.151 -4.62146 -3.59664 -3.54027 1.75113e-05
540 1 22.7934 -2.84604 -1.78914 -3.54028 2.59584e-05
541 1 22.4364 -1.07071 0.0183625 -3.54029 3.20686e-05
542 1 22.08 0.704217 1.82586 -3.54028 3.22847e-05
543 1 24.5642 -2.49163 -3.59664 -3.54027 2.10243e-05
544 1 24.2079 -0.717443 -1.78914 -3.54028 2.3166e-05
545 1 23.8524 1.05639 0.0183626 -3.54027 2.12428e-05
546 1 23.4978 2.8297 1.82586 -3.54026 1.69341e-05
547 1 25.9804 -0.364219 -3.59664 -3.54026 1.55627e-05
548 1 25.6256 1.40875 -1.78914 -3.54026 1.35587e-05
549 1 25.2717 3.18132 0.0183626 -3.54025 1.06007e-05
550 1 24.9186 4.95341 1.82586 -3.54025 7.664e-06
551 1 27.3994 1.76131 -3.59664 -3.54025 8.14952e-06
552 1 27.046 3.53332 -1.78914 -3.54024 6.06124e-06
553 1 26.6933 5.30498 0.0183627 -3.54024 3.99927e-06
554 1 26.3413 7.07627 1.82586 -3.54023 2.59621e-06
555 1 28.8204 3.88571 -3.59664 -3.54023 3.07507e-06
556 1 28.468 5.6571 -1.78914 -3.54023 2.08627e-06
557 1 28.1161 7.4283 0.0183628 -3.54021 2.17084e-06
558 1 27.7647 9.19935 1.82586 -3.5402 4.37684e-06
559 1 30.2425 6.00978 -3.59664 -3.54021 1.53414e-06
560 1 29.8905 7.781 -1.78914 -3.5402 2.74991e-06
561 1 29.5388 9.55225 0.0183628 -3.54019 5.39113e-06
562 1 29.187 11.3236 1.82586 -3.54019 8.51236e-06
563 1 31.6645 8.13428 -3.59664 -3.5402 3.44738e-06
564 1 31.3123 9.90577 -1.78914 -3.5402 5.70445e-06
565 1 30.96 11.6775 0.0183629 -3.54019 7.22679e-06
566 1 30.6073 13.4495 1.82586 -3.54019 7.55615e-06
567 1 33.0853 10.2598 -3.59664 -3.5402 5.2168e-06
568 1 32.7324 12.0318 -1.78914 -3.5402 5.29532e-06
569 1 32.3792 13.8041 0.0183629 -3.5402 4.83636e-06
570 1 32.0255 15.5768 1.82586 -3.5402 4.27315e-06
571 1 34.5045 12.3865 -3.59664 -3.5402 3.1753e-06
572 1 34.1509 14.159 -1.78914 -3.5402 2.93316e-06
573 1 33.7967 15.9318 0.018363 -3.54021 2.80403e-06
574 1 33.4421 17.7049 1.82586 -3.54022 2.19526e-06
575 1 35.9224 14.514 -3.59664 -3.54021 2.20268e-06
576 1 35.5679 16.2869 -1.78914 -3.54022 2.21804e-06
577 1 35.213 18.0601 0.018363 -3.54023 1.23446e-06
578 1 37.339 16.642 -3.59664 -3.54024 1.78262e-06