ITEM: TIMESTEP
0
ITEM: NUMBER OF ATOMS
2504
ITEM: BOX BOUNDS xy xz yz mm pp pp
-5.5498871899999997e+01 5.5498871899999997e+01 0.0000000000000000e+00
-1.8432957300000002e+01 1.8432957300000002e+01 0.0000000000000000e+00
-3.6150000000000002e+00 3.6150000000000002e+00 0.0000000000000000e+00
ITEM: ATOMS id type x y z c_eng c_csym
1 1 0.638012 16.7161 -3.61263 -3.44504 3.70733
2 1 0.285056 -18.3408 -1.80513 -3.28879 9.20684
3 1 1.02087 13.0122 -3.61263 -3.48077 0.458901
4 1 0.890273 14.7594 -1.80513 -3.50366 0.595675
5 1 0.638012 16.7161 0.00236616 -3.44504 3.70733
6 1 0.285056 -18.3408 1.80987 -3.28879 9.20684
7 1 2.60902 15.1609 -3.61263 -3.54237 0.122954
8 1 2.29749 16.9881 -1.80513 -3.5239 0.0735787
9 1 3.99225 17.3628 -3.61263 -3.54649 0.0280416
10 1 0.617477 7.47597 -3.61263 -3.46619 3.11745
11 1 0.264004 9.27408 -1.80513 -3.29575 7.64506
12 1 1.88488 9.65205 -3.61263 -3.46667 0.591782
13 1 1.38694 11.4035 -1.80513 -3.44496 0.648393
14 1 1.02087 13.0122 0.00236647 -3.48077 0.458901
15 1 0.890273 14.7594 1.80987 -3.50366 0.595675
16 1 3.26186 11.7158 -3.61263 -3.51871 0.0632272
17 1 2.94884 13.4127 -1.80513 -3.50916 0.0907659
18 1 2.60902 15.1609 0.00236661 -3.54237 0.122954
19 1 2.29749 16.9881 1.80987 -3.5239 0.0735787
20 1 4.73604 13.7949 -3.61263 -3.53224 0.0171877
21 1 4.37204 15.56 -1.80513 -3.53828 0.00946597
22 1 3.99225 17.3628 0.00236676 -3.54649 0.0280416
23 1 6.12663 15.9405 -3.61263 -3.54062 0.0023263
24 1 5.75246 17.7184 -1.80513 -3.54455 0.0101362
25 1 7.53708 18.0663 -3.61263 -3.54085 0.00153257
26 1 1.04075 3.78754 -3.61263 -3.48803 0.417923
27 1 0.88617 5.53882 -1.80513 -3.51267 0.470396
28 1 0.617477 7.47597 0.00236616 -3.46619 3.11745
29 1 0.264004 9.27408 1.80987 -3.29582 7.64507
30 1 2.6084 5.94134 -3.61263 -3.54252 0.102945
31 1 2.289 7.76221 -1.80513 -3.52427 0.0626762
32 1 1.88488 9.65205 0.00236666 -3.46667 0.591782
33 1 1.38694 11.4035 1.80987 -3.44496 0.648393
34 1 3.98763 8.1421 -3.61263 -3.54633 0.0248387
35 1 3.61075 9.94936 -1.80513 -3.5437 0.0511449
36 1 3.26186 11.7158 0.00236681 -3.51871 0.0632272
37 1 2.94884 13.4127 1.80987 -3.50916 0.0907659
38 1 5.39625 10.2719 -3.61263 -3.54316 0.00575225
39 1 5.07314 12.0328 -1.80513 -3.53459 0.00987268
40 1 4.73604 13.7949 0.00236703 -3.53224 0.0171877
41 1 4.37204 15.56 1.80987 -3.53828 0.00946597
42 1 6.849 12.3824 -3.61263 -3.53855 0.00344116
43 1 6.49764 14.1592 -1.80513 -3.53824 0.0021073
44 1 6.12663 15.9405 0.00236709 -3.54062 0.0023263
45 1 5.75246 17.7184 1.80987 -3.54455 0.0101362
46 1 8.25745 14.5196 -3.61263 -3.54082 0.00038249
47 1 7.89404 16.297 -1.80513 -3.54128 0.00194669
48 1 7.53708 18.0663 0.00236725 -3.54085 0.00153257
49 1 9.67062 16.6468 -3.61263 -3.54069 0.000440708
50 1 9.3216 18.4145 -1.80513 -3.53954 0.00018811
51 1 0.620276 -1.74355 -3.61263 -3.46877 3.05179
52 1 0.268316 0.0516355 -1.80513 -3.29909 7.54003
53 1 1.90216 0.423131 -3.61263 -3.47213 0.559984
54 1 1.41337 2.17251 -1.80513 -3.44917 0.605296
55 1 1.04075 3.78754 0.00236647 -3.48803 0.417921
56 1 0.88617 5.53882 1.80987 -3.51258 0.470396
57 1 3.27806 2.49287 -3.61263 -3.52019 0.0569919
58 1 2.95591 4.19422 -1.80513 -3.51264 0.0772103
59 1 2.6084 5.94134 0.00236661 -3.54252 0.102945
60 1 2.289 7.76221 1.80987 -3.52428 0.0626762
61 1 4.74034 4.57839 -3.61263 -3.53269 0.0151454
62 1 4.37192 6.34281 -1.80513 -3.53824 0.00800449
63 1 3.98763 8.1421 0.00236676 -3.54633 0.0248387
64 1 3.61075 9.94936 1.80987 -3.5437 0.0511449
65 1 6.12659 6.72514 -3.61263 -3.54058 0.00236944
66 1 5.7491 8.50144 -1.80513 -3.5443 0.0094196
67 1 5.39625 10.2719 0.00236708 -3.54316 0.00575225
68 1 5.07314 12.0328 1.80987 -3.53459 0.00987268
69 1 7.53367 8.85212 -3.61263 -3.54073 0.00141484
70 1 7.18866 10.6143 -1.80513 -3.53927 0.00129915
71 1 6.849 12.3824 0.00236725 -3.53855 0.00344116
72 1 6.49764 14.1592 1.80987 -3.53824 0.0021073
73 1 8.96864 10.9693 -3.61263 -3.53911 0.000784616
74 1 8.61663 12.7413 -1.80513 -3.53985 0.000613855
75 1 8.25745 14.5196 0.00236731 -3.54082 0.00038249
76 1 7.89404 16.297 1.80987 -3.54128 0.00194669
77 1 10.3845 13.1002 -3.61263 -3.54051 7.14683e-05
78 1 10.026 14.8747 -1.80513 -3.54108 0.000422041
79 1 9.67062 16.6468 0.00236747 -3.54069 0.000440708
80 1 9.3216 18.4145 1.80987 -3.53954 0.00018811
81 1 11.8006 15.2276 -3.61263 -3.54059 0.000124101
82 1 11.4488 16.9975 -1.80513 -3.54012 3.982e-05
83 1 13.2249 17.3507 -3.61263 -3.53999 4.17875e-05
84 1 1.0482 -5.42293 -3.61263 -3.48567 0.427706
85 1 0.889661 -3.67749 -1.80513 -3.51425 0.469438
86 1 0.620276 -1.74355 0.00236616 -3.46877 3.05179
87 1 0.268316 0.0516355 1.80987 -3.29918 7.54003
88 1 2.61683 -3.27169 -3.61263 -3.54328 0.100304
89 1 2.29776 -1.45756 -1.80513 -3.52671 0.0599203
90 1 1.90216 0.423131 0.00236666 -3.47213 0.559983
91 1 1.41337 2.17251 1.80987 -3.4493 0.605296
92 1 4.00344 -1.07744 -3.61263 -3.54668 0.0212467
93 1 3.62936 0.725525 -1.80513 -3.54349 0.0407185
94 1 3.27806 2.49287 0.00236681 -3.52019 0.0569919
95 1 2.95591 4.19422 1.80987 -3.51265 0.0772103
96 1 5.41129 1.05375 -3.61263 -3.5431 0.00439637
97 1 5.0829 2.81565 -1.80513 -3.53515 0.00844864
98 1 4.74034 4.57839 0.00236703 -3.53269 0.0151454
99 1 4.37192 6.34281 1.80987 -3.53824 0.00800449
100 1 6.85611 3.16823 -3.61263 -3.53877 0.00289618
101 1 6.50085 4.94473 -1.80513 -3.53837 0.00190262
102 1 6.12659 6.72514 0.00236709 -3.54058 0.00236944
103 1 5.7491 8.50144 1.80987 -3.5443 0.0094196
104 1 8.25995 5.30668 -3.61263 -3.54081 0.000410194
105 1 7.89368 7.08352 -1.80513 -3.54123 0.00194866
106 1 7.53367 8.85212 0.00236725 -3.54073 0.00141484
107 1 7.18866 10.6143 1.80987 -3.53927 0.00129915
108 1 9.66958 7.43489 -3.61263 -3.54064 0.000432969
109 1 9.31755 9.20239 -1.80513 -3.5395 0.00017538
110 1 8.96864 10.9693 0.00236742 -3.53911 0.000784616
111 1 8.61663 12.7413 1.80987 -3.53985 0.000613855
112 1 11.0948 9.55601 -3.61263 -3.53962 0.000147023
113 1 10.7414 11.3268 -1.80513 -3.53976 0.000160722
114 1 10.3845 13.1002 0.00236754 -3.54051 7.14683e-05
115 1 10.026 14.8747 1.80987 -3.54108 0.000422041
116 1 12.5127 11.6835 -3.61263 -3.54024 1.18199e-05
117 1 12.156 13.4561 -1.80513 -3.54056 8.67426e-05
118 1 11.8006 15.2276 0.00236783 -3.54059 0.000124101
119 1 11.4488 16.9975 1.80987 -3.54012 3.982e-05
120 1 13.9299 13.8101 -3.61263 -3.54038 3.37294e-05
121 1 13.5765 15.5806 -1.80513 -3.54021 1.23188e-05
122 1 13.2249 17.3507 0.00236807 -3.53999 4.17875e-05
123 1 15.3515 15.9344 -3.61263 -3.5401 9.57098e-06
124 1 14.9988 17.7053 -1.80513 -3.54007 2.34556e-05
125 1 16.7717 18.0604 -3.61263 -3.54017 5.70378e-06
126 1 0.649178 -10.9371 -3.61263 -3.44871 3.59965
127 1 0.304832 -9.13569 -1.80513 -3.29268 9.04317
128 1 1.9263 -8.77513 -3.61263 -3.46549 0.628275
129 1 1.43195 -7.0253 -1.80513 -3.43976 0.668491
130 1 1.0482 -5.42293 0.00236647 -3.48567 0.427704
131 1 0.889661 -3.67749 1.80987 -3.51415 0.469438
132 1 3.29449 -6.71036 -3.61263 -3.51953 0.0685644
133 1 2.96854 -5.01123 -1.80513 -3.51157 0.0779553
134 1 2.61683 -3.27169 0.00236661 -3.54328 0.100304
135 1 2.29776 -1.45756 1.80987 -3.52672 0.0599203
136 1 4.75433 -4.63049 -3.61263 -3.53243 0.0162596
137 1 4.38579 -2.86982 -1.80513 -3.53817 0.00697363
138 1 4.00344 -1.07744 0.00236686 -3.54668 0.0212467
139 1 3.62936 0.725525 1.80987 -3.54349 0.0407185
140 1 6.14279 -2.48947 -3.61263 -3.54017 0.0020145
141 1 5.76617 -0.715498 -1.80513 -3.54389 0.00691537
142 1 5.41129 1.05375 0.00236708 -3.5431 0.00439637
143 1 5.0829 2.81565 1.80987 -3.53515 0.00844864
144 1 7.54821 -0.36308 -3.61263 -3.54056 0.001019
145 1 7.20007 1.39982 -1.80513 -3.53938 0.00103975
146 1 6.85611 3.16823 0.00236725 -3.53877 0.00289618
147 1 6.50085 4.94473 1.80987 -3.53837 0.00190262
148 1 8.97724 1.75611 -3.61263 -3.53917 0.000663007
149 1 8.62215 3.52863 -1.80513 -3.53989 0.000487745
150 1 8.25995 5.30668 0.00236731 -3.54081 0.000410194
151 1 7.89368 7.08352 1.80987 -3.54123 0.00194866
152 1 10.3886 3.88816 -3.61263 -3.54047 7.30247e-05
153 1 10.0277 5.66291 -1.80513 -3.54103 0.000427004
154 1 9.66958 7.43489 0.00236747 -3.54064 0.000432969
155 1 9.31755 9.20239 1.80987 -3.5395 0.00017538
156 1 11.8011 6.01637 -3.61263 -3.54054 0.000127472
157 1 11.4469 7.78659 -1.80513 -3.54009 3.34858e-05
158 1 11.0948 9.55601 0.00236774 -3.53962 0.000147023
159 1 10.7414 11.3268 1.80987 -3.53976 0.000160722
160 1 13.2221 8.14012 -3.61263 -3.53998 2.38289e-05
161 1 12.8682 9.91127 -1.80513 -3.53998 3.89393e-05
162 1 12.5127 11.6835 0.00236793 -3.54024 1.18199e-05
163 1 12.156 13.4561 1.80987 -3.54056 8.67426e-05
164 1 14.6405 10.2665 -3.61263 -3.54021 2.60174e-06
165 1 14.285 12.0386 -1.80513 -3.54036 1.81904e-05
166 1 13.9299 13.8101 0.00236813 -3.54038 3.37294e-05
167 1 13.5765 15.5806 1.80987 -3.54021 1.23188e-05
168 1 16.0584 12.3927 -3.61263 -3.5403 9.42907e-06
169 1 15.7045 14.1637 -1.80513 -3.54022 4.49057e-06
170 1 15.3515 15.9344 0.00236842 -3.5401 9.57098e-06
171 1 14.9988 17.7053 1.80987 -3.54007 2.34556e-05
172 1 17.4786 14.5177 -3.61263 -3.54016 2.63729e-06
173 1 17.1253 16.2889 -1.80513 -3.54013 7.37693e-06
174 1 16.7717 18.0604 0.00236872 -3.54017 5.70378e-06
175 1 18.8983 16.6436 -3.61263 -3.54018 2.77694e-06
176 1 18.5442 18.4154 -1.80513 -3.54022 8.80355e-07
177 1 1.02498 -14.6292 -3.61263 -3.47759 0.496492
178 1 0.897806 -12.8844 -1.80513 -3.507 0.576066
179 1 0.649178 -10.9371 0.00236616 -3.44871 3.59965
180 1 0.304832 -9.13569 1.80987 -3.2927 9.04317
181 1 2.62228 -12.488 -3.61263 -3.5429 0.123686
182 1 2.31589 -10.6669 -1.80513 -3.52581 0.0722601
183 1 1.9263 -8.77513 0.00236666 -3.46549 0.628274
184 1 1.43195 -7.0253 1.80987 -3.43989 0.668491
185 1 4.01437 -10.2927 -3.61263 -3.54678 0.024218
186 1 3.64476 -8.4827 -1.80513 -3.54367 0.0435223
187 1 3.29449 -6.71036 0.00236681 -3.51953 0.0685644
188 1 2.96854 -5.01123 1.80987 -3.51159 0.0779553
189 1 5.42178 -8.16027 -3.61263 -3.54367 0.00495909
190 1 5.09594 -6.39431 -1.80513 -3.53549 0.00860914
191 1 4.75433 -4.63049 0.00236703 -3.53243 0.0162596
192 1 4.38579 -2.86982 1.80987 -3.53817 0.00697363
193 1 6.86707 -6.04681 -3.61263 -3.53897 0.00272997
194 1 6.51468 -4.26893 -1.80513 -3.53831 0.00213602
195 1 6.14279 -2.48947 0.00236709 -3.54017 0.0020145
196 1 5.76617 -0.715498 1.80987 -3.54389 0.00691537
197 1 8.27281 -3.9103 -3.61263 -3.54073 0.000305239
198 1 7.90857 -2.13244 -1.80513 -3.541 0.00149283
199 1 7.54821 -0.36308 0.00236725 -3.54056 0.001019
200 1 7.20007 1.39982 1.80987 -3.53938 0.00103975
201 1 9.6815 -1.78168 -3.61263 -3.5406 0.00029805
202 1 9.3286 -0.0121974 -1.80513 -3.53952 0.000172765
203 1 8.97724 1.75611 0.00236742 -3.53917 0.000663007
204 1 8.62215 3.52863 1.80987 -3.53989 0.000487745
205 1 11.1027 0.34139 -3.61263 -3.53967 0.000135833
206 1 10.7477 2.11386 -1.80513 -3.53977 0.000138273
207 1 10.3886 3.88816 0.00236764 -3.54047 7.30247e-05
208 1 10.0277 5.66291 1.80987 -3.54103 0.000427004
209 1 12.5168 2.47033 -3.61263 -3.54024 1.84705e-05
210 1 12.1584 4.2441 -1.80513 -3.54053 9.96101e-05
211 1 11.8011 6.01637 0.00236783 -3.54054 0.000127472
212 1 11.4469 7.78659 1.80987 -3.54009 3.34858e-05
213 1 13.9308 4.59795 -3.61263 -3.54037 4.14751e-05
214 1 13.5758 6.36943 -1.80513 -3.54019 1.31952e-05
215 1 13.2221 8.14012 0.00236807 -3.53998 2.38289e-05
216 1 12.8682 9.91127 1.80987 -3.53998 3.89393e-05
217 1 15.3497 6.72298 -3.61263 -3.54011 4.04451e-06
218 1 14.9955 8.49454 -1.80513 -3.54009 8.30221e-06
219 1 14.6405 10.2665 0.00236829 -3.54021 2.60174e-06
220 1 14.285 12.0386 1.80987 -3.54036 1.81904e-05
221 1 16.7681 8.84897 -3.61263 -3.5402 8.20553e-07
222 1 16.4132 10.621 -1.80513 -3.54028 4.1644e-06
223 1 16.0584 12.3927 0.00236853 -3.5403 9.42907e-06
224 1 15.7045 14.1637 1.80987 -3.54022 4.49057e-06
225 1 18.1863 10.975 -3.61263 -3.54026 2.85365e-06
226 1 17.8322 12.7465 -1.80513 -3.54023 1.85071e-06
227 1 17.4786 14.5177 0.00236885 -3.54016 2.63729e-06
228 1 17.1253 16.2889 1.80987 -3.54013 7.37693e-06
229 1 19.6057 13.1004 -3.61263 -3.54019 9.66696e-07
230 1 19.2521 14.872 -1.80513 -3.54017 2.59855e-06
231 1 18.8983 16.6436 0.0023692 -3.54018 2.77694e-06
232 1 18.5442 18.4154 1.80987 -3.54022 8.80355e-07
233 1 21.025 15.2264 -3.61263 -3.54019 1.40591e-06
234 1 20.6709 16.9983 -1.80513 -3.54021 8.45554e-07
235 1 22.4434 17.353 -3.61263 -3.54022 3.77837e-07
236 1 1.8996 -17.9782 -3.61263 -3.45859 0.686551
237 1 1.39563 -16.2257 -1.80513 -3.43109 0.743183
238 1 1.02498 -14.6292 0.00236647 -3.47759 0.496492
239 1 0.897806 -12.8844 1.80987 -3.507 0.576066
240 1 3.27364 -15.9215 -3.61263 -3.51754 0.0740363
241 1 2.96082 -14.2282 -1.80513 -3.5082 0.0924993
242 1 2.62228 -12.488 0.00236661 -3.5429 0.123686
243 1 2.31589 -10.6669 1.80987 -3.52581 0.0722601
244 1 4.75145 -13.8511 -3.61263 -3.5318 0.0187753
245 1 4.39058 -12.0901 -1.80513 -3.53802 0.00950255
246 1 4.01437 -10.2927 0.00236686 -3.54678 0.024218
247 1 3.64476 -8.4827 1.80987 -3.54367 0.0435223
248 1 6.14635 -11.7108 -3.61263 -3.54025 0.00165696
249 1 5.77332 -9.93392 -1.80513 -3.54429 0.00731884
250 1 5.42178 -8.16027 0.00236708 -3.54367 0.00495909
251 1 5.09594 -6.39431 1.80987 -3.53549 0.00860914
252 1 7.55348 -9.58318 -3.61263 -3.54077 0.00100235
253 1 7.20807 -7.8178 -1.80513 -3.53968 0.00106746
254 1 6.86707 -6.04681 0.00236725 -3.53897 0.00272997
255 1 6.51468 -4.26893 1.80987 -3.53831 0.00213602
256 1 8.98416 -7.46373 -3.61263 -3.53929 0.00064068
257 1 8.63197 -5.6897 -1.80513 -3.53996 0.000525107
258 1 8.27281 -3.9103 0.00236731 -3.54073 0.000305239
259 1 7.90857 -2.13244 1.80987 -3.541 0.00149283
260 1 10.3974 -5.33186 -3.61263 -3.54046 5.42536e-05
261 1 10.0386 -3.55559 -1.80513 -3.54098 0.000275812
262 1 9.6815 -1.78168 0.00236747 -3.5406 0.00029805
263 1 9.3286 -0.0121974 1.80987 -3.53952 0.000172765
264 1 11.8097 -3.20251 -3.61263 -3.54054 7.16409e-05
265 1 11.4557 -1.43019 -1.80513 -3.54013 2.08936e-05
266 1 11.1027 0.34139 0.00236774 -3.53967 0.000135833
267 1 10.7477 2.11386 1.80987 -3.53977 0.000138273
268 1 13.2282 -1.07668 -3.61263 -3.54003 2.1507e-05
269 1 12.8735 0.696436 -1.80513 -3.54001 3.35939e-05
270 1 12.5168 2.47033 0.00236793 -3.54024 1.84705e-05
271 1 12.1584 4.2441 1.80987 -3.54053 9.96101e-05
272 1 14.6437 1.05147 -3.61263 -3.54023 3.98933e-06
273 1 14.2872 2.82513 -1.80513 -3.54037 2.50827e-05
274 1 13.9308 4.59795 0.00236813 -3.54037 4.14751e-05
275 1 13.5758 6.36943 1.80987 -3.54019 1.31952e-05
276 1 16.0591 3.17898 -3.61263 -3.54031 1.33081e-05
277 1 15.704 4.95131 -1.80513 -3.54023 6.60664e-06
278 1 15.3497 6.72298 0.00236842 -3.54011 4.04451e-06
279 1 14.9955 8.49454 1.80987 -3.54009 8.30221e-06
280 1 17.4771 5.30487 -3.61263 -3.54018 8.29336e-07
281 1 17.1227 7.07692 -1.80513 -3.54015 1.53814e-06
282 1 16.7681 8.84897 0.00236872 -3.5402 8.20553e-07
283 1 16.4132 10.621 1.80987 -3.54028 4.1644e-06
284 1 18.8954 7.43093 -3.61263 -3.5402 2.26464e-07
285 1 18.5408 9.20309 -1.80513 -3.54024 1.2001e-06
286 1 18.1863 10.975 0.00236903 -3.54026 2.85365e-06
287 1 17.8322 12.7465 1.80987 -3.54023 1.85071e-06
288 1 20.3137 9.557 -3.61263 -3.54024 9.16685e-07
289 1 19.9596 11.3289 -1.80513 -3.54023 7.95566e-07
290 1 19.6057 13.1004 0.00236945 -3.54019 9.66696e-07
291 1 19.2521 14.872 1.80987 -3.54017 2.59855e-06
292 1 21.7327 11.6828 -3.61263 -3.54021 3.91931e-07
293 1 21.3789 13.4546 -1.80513 -3.54019 1.02712e-06
294 1 21.025 15.2264 0.00236977 -3.54019 1.40591e-06
295 1 20.6709 16.9983 1.80987 -3.54021 8.45554e-07
296 1 23.1516 13.8089 -3.61263 -3.5402 7.06917e-07
297 1 22.7976 15.5809 -1.80513 -3.54021 6.36582e-07
298 1 22.4434 17.353 0.00237004 -3.54022 3.77837e-07
299 1 24.57 15.9354 -3.61263 -3.54021 3.36037e-07
300 1 24.2158 17.7076 -1.80513 -3.54021 2.73867e-07
301 1 25.988 18.0622 -3.61263 -3.54021 2.15684e-07
302 1 1.8996 -17.9782 0.00236666 -3.45859 0.686551
303 1 1.39563 -16.2257 1.80987 -3.43109 0.743183
304 1 3.62002 -17.6912 -1.80513 -3.54375 0.0548656
305 1 3.27364 -15.9215 0.00236681 -3.51754 0.0740363
306 1 2.96082 -14.2282 1.80987 -3.5082 0.0924993
307 1 5.40342 -17.3748 -3.61263 -3.54356 0.00654767
308 1 5.08457 -15.6122 -1.80513 -3.53473 0.0101219
309 1 4.75145 -13.8511 0.00236703 -3.5318 0.0187753
310 1 4.39058 -12.0901 1.80987 -3.53802 0.00950255
311 1 6.8606 -15.2678 -3.61263 -3.53863 0.0036714
312 1 6.51382 -13.491 -1.80513 -3.53807 0.00264216
313 1 6.14635 -11.7108 0.00236709 -3.54025 0.00165696
314 1 5.77332 -9.93392 1.80987 -3.54429 0.00731884
315 1 8.27261 -13.1329 -3.61263 -3.54069 0.000249959
316 1 7.91128 -11.3543 -1.80513 -3.54107 0.00129183
317 1 7.55348 -9.58318 0.00236725 -3.54077 0.00100235
318 1 7.20807 -7.8178 1.80987 -3.53968 0.00106746
319 1 9.68382 -11.0038 -3.61263 -3.54066 0.000261817
320 1 9.33306 -9.23338 -1.80513 -3.53961 0.000133146
321 1 8.98416 -7.46373 0.00236742 -3.53929 0.00064068
322 1 8.63197 -5.6897 1.80987 -3.53996 0.000525107
323 1 11.107 -8.88042 -3.61263 -3.53971 0.000131839
324 1 10.754 -7.10722 -1.80513 -3.5398 0.000149579
325 1 10.3974 -5.33186 0.00236764 -3.54046 5.42536e-05
326 1 10.0386 -3.55559 1.80987 -3.54098 0.000275812
327 1 12.5226 -6.75114 -3.61263 -3.54023 1.29243e-05
328 1 12.1659 -4.97638 -1.80513 -3.54051 5.14192e-05
329 1 11.8097 -3.20251 0.00236783 -3.54054 7.16409e-05
330 1 11.4557 -1.43019 1.80987 -3.54013 2.08936e-05
331 1 13.9368 -4.62229 -3.61263 -3.54036 1.80354e-05
332 1 13.5821 -2.84929 -1.80513 -3.54021 4.10993e-06
333 1 13.2282 -1.07668 0.00236807 -3.54003 2.1507e-05
334 1 12.8735 0.696436 1.80987 -3.54001 3.35939e-05
335 1 15.354 -2.49533 -3.61263 -3.54013 2.99062e-06
336 1 14.9994 -0.722151 -1.80513 -3.54012 6.96064e-06
337 1 14.6437 1.05147 0.00236829 -3.54023 3.98933e-06
338 1 14.2872 2.82513 1.80987 -3.54037 2.50827e-05
339 1 16.7703 -0.367527 -3.61263 -3.54022 1.04832e-06
340 1 16.4147 1.40591 -1.80513 -3.5403 6.57933e-06
341 1 16.0591 3.17898 0.00236853 -3.54031 1.33081e-05
342 1 15.704 4.95131 1.80987 -3.54023 6.60664e-06
343 1 18.1865 1.75992 -3.61263 -3.54027 4.61247e-06
344 1 17.8316 3.5326 -1.80513 -3.54024 3.08369e-06
345 1 17.4771 5.30487 0.00236885 -3.54018 8.29336e-07
346 1 17.1227 7.07692 1.80987 -3.54015 1.53814e-06
347 1 19.6042 3.88633 -3.61263 -3.54021 4.51505e-07
348 1 19.2498 5.65867 -1.80513 -3.54019 1.77547e-07
349 1 18.8954 7.43093 0.0023693 -3.5402 2.26464e-07
350 1 18.5408 9.20309 1.80987 -3.54024 1.2001e-06
351 1 21.0224 6.01259 -3.61263 -3.54021 6.93851e-08
352 1 20.668 7.78488 -1.80513 -3.54023 3.74604e-07
353 1 20.3137 9.557 0.00236964 -3.54024 9.16685e-07
354 1 19.9596 11.3289 1.80987 -3.54023 7.95566e-07
355 1 22.4408 8.1388 -3.61263 -3.54023 3.01059e-07
356 1 22.0866 9.91088 -1.80513 -3.54022 3.0182e-07
357 1 21.7327 11.6828 0.00236994 -3.54021 3.91931e-07
358 1 21.3789 13.4546 1.80987 -3.54019 1.02712e-06
359 1 23.8595 10.2648 -3.61263 -3.54021 1.48643e-07
360 1 23.5056 12.0369 -1.80513 -3.5402 4.18036e-07
361 1 23.1516 13.8089 0.00237021 -3.5402 7.06917e-07
362 1 22.7976 15.5809 1.80987 -3.54021 6.36582e-07
363 1 25.2782 12.3911 -3.61263 -3.54021 3.50302e-07
364 1 24.9242 14.1632 -1.80513 -3.54021 4.08763e-07
365 1 24.57 15.9354 0.00237046 -3.54021 3.36037e-07
366 1 24.2158 17.7076 1.80987 -3.54021 2.73867e-07
367 1 26.6966 14.5176 -3.61263 -3.54021 2.45066e-07
368 1 26.3424 16.2899 -1.80513 -3.54021 2.15517e-07
369 1 25.988 18.0622 0.00237079 -3.54021 2.15684e-07
370 1 28.1146 16.6445 -3.61263 -3.54021 1.42163e-07
371 1 27.7602 18.4169 -1.80513 -3.54021 1.50962e-07
372 1 3.62002 -17.6912 1.80987 -3.54375 0.0548656
373 1 5.40342 -17.3748 0.00236708 -3.54356 0.00654767
374 1 5.08457 -15.6122 1.80987 -3.53473 0.0101219
375 1 7.19577 -17.0365 -1.80513 -3.53945 0.00142774
376 1 6.8606 -15.2678 0.00236725 -3.53863 0.0036714
377 1 6.51382 -13.491 1.80987 -3.53807 0.00264216
378 1 8.97624 -16.6843 -3.61263 -3.53914 0.000907798
379 1 8.62816 -14.9119 -1.80513 -3.53983 0.000826768
380 1 8.27261 -13.1329 0.00236731 -3.54069 0.000249959
381 1 7.91128 -11.3543 1.80987 -3.54107 0.00129183
382 1 10.3952 -14.5541 -3.61263 -3.54044 7.29131e-05
383 1 10.0388 -12.7782 -1.80513 -3.541 0.000225199
384 1 9.68382 -11.0038 0.00236747 -3.54066 0.000261817
385 1 9.33306 -9.23338 1.80987 -3.53961 0.000133146
386 1 11.8103 -12.4248 -3.61263 -3.54058 6.05946e-05
387 1 11.458 -10.6524 -1.80513 -3.54017 1.99572e-05
388 1 11.107 -8.88042 0.00236774 -3.53971 0.000131839
389 1 10.754 -7.10722 1.80987 -3.5398 0.000149579
390 1 13.2307 -10.2988 -3.61263 -3.54005 2.89594e-05
391 1 12.8777 -8.52554 -1.80513 -3.54002 4.39364e-05
392 1 12.5226 -6.75114 0.00236793 -3.54023 1.29243e-05
393 1 12.1659 -4.97638 1.80987 -3.54051 5.14192e-05
394 1 14.6477 -8.1702 -3.61263 -3.54023 5.71467e-06
395 1 14.2923 -6.3961 -1.80513 -3.54035 9.71915e-06
396 1 13.9368 -4.62229 0.00236813 -3.54036 1.80354e-05
397 1 13.5821 -2.84929 1.80987 -3.54021 4.10993e-06
398 1 16.0633 -6.0416 -3.61263 -3.5403 4.64648e-06
399 1 15.7085 -4.26835 -1.80513 -3.54023 1.38065e-06
400 1 15.354 -2.49533 0.00236842 -3.54013 2.99062e-06
401 1 14.9994 -0.722151 1.80987 -3.54012 6.96064e-06
402 1 17.4802 -3.91408 -3.61263 -3.54019 4.046e-07
403 1 17.1255 -2.14091 -1.80513 -3.54017 1.27183e-06
404 1 16.7703 -0.367527 0.00236872 -3.54022 1.04832e-06
405 1 16.4147 1.40591 1.80987 -3.5403 6.57933e-06
406 1 18.8968 -1.78638 -3.61263 -3.54022 4.39937e-07
407 1 18.5417 -0.013149 -1.80513 -3.54026 2.12467e-06
408 1 18.1865 1.75992 0.00236903 -3.54027 4.61247e-06
409 1 17.8316 3.5326 1.80987 -3.54024 3.08369e-06
410 1 20.3135 0.341023 -3.61263 -3.54025 1.86166e-06
411 1 19.9587 2.1138 -1.80513 -3.54024 1.59321e-06
412 1 19.6042 3.88633 0.00236945 -3.54021 4.51505e-07
413 1 19.2498 5.65867 1.80987 -3.54019 1.77547e-07
414 1 21.7311 2.46773 -3.61263 -3.54022 4.29829e-07
415 1 21.3767 4.2402 -1.80513 -3.54021 9.72264e-08
416 1 21.0224 6.01259 0.00236977 -3.54021 6.93851e-08
417 1 20.668 7.78488 1.80987 -3.54023 3.74604e-07
418 1 23.1493 4.59418 -3.61263 -3.54022 8.87886e-08
419 1 22.795 6.36655 -1.80513 -3.54022 1.54171e-07
420 1 22.4408 8.1388 0.00237004 -3.54023 3.01059e-07
421 1 22.0866 9.91088 1.80987 -3.54022 3.0182e-07
422 1 24.5676 6.72053 -3.61263 -3.54023 1.25678e-07
423 1 24.2135 8.49274 -1.80513 -3.54022 1.14122e-07
424 1 23.8595 10.2648 0.00237035 -3.54021 1.48643e-07
425 1 23.5056 12.0369 1.80987 -3.5402 4.18036e-07
426 1 25.9862 8.84679 -3.61263 -3.54022 6.299e-08
427 1 25.6322 10.6189 -1.80513 -3.54021 1.74918e-07
428 1 25.2782 12.3911 0.00237067 -3.54021 3.50302e-07
429 1 24.9242 14.1632 1.80987 -3.54021 4.08763e-07
430 1 27.4048 10.9732 -3.61263 -3.54021 1.84764e-07
431 1 27.0507 12.7454 -1.80513 -3.54021 2.54031e-07
432 1 26.6966 14.5176 0.00237096 -3.54021 2.45066e-07
433 1 26.3424 16.2899 1.80987 -3.54021 2.15517e-07
434 1 28.8231 13.0998 -3.61263 -3.54022 1.76316e-07
435 1 28.4689 14.8721 -1.80513 -3.54021 1.50723e-07
436 1 28.1146 16.6445 0.00237126 -3.54021 1.42163e-07
437 1 27.7602 18.4169 1.80987 -3.54021 1.50962e-07
438 1 30.2411 15.2266 -3.61263 -3.54021 8.34071e-08
439 1 29.8868 16.999 -1.80513 -3.54021 9.34152e-08
440 1 31.6589 17.3536 -3.61263 -3.54022 8.00017e-08
441 1 7.19577 -17.0365 1.80987 -3.53945 0.00142774
442 1 8.97624 -16.6843 0.00236742 -3.53914 0.000907798
443 1 8.62816 -14.9119 1.80987 -3.53983 0.000826768
444 1 11.0996 -18.0991 -3.61263 -3.53962 0.000189814
445 1 10.7492 -16.3281 -1.80513 -3.53972 0.000249488
446 1 10.3952 -14.5541 0.00236754 -3.54044 7.29131e-05
447 1 10.0388 -12.7782 1.80987 -3.541 0.000225199
448 1 12.5199 -15.9717 -3.61263 -3.54019 2.34649e-05
449 1 12.1649 -14.1982 -1.80513 -3.54052 3.24344e-05
450 1 11.8103 -12.4248 0.00236783 -3.54058 6.05946e-05
451 1 11.458 -10.6524 1.80987 -3.54017 1.99572e-05
452 1 13.9368 -13.8435 -3.61263 -3.54037 1.04314e-05
453 1 13.5833 -12.0711 -1.80513 -3.54024 5.06255e-06
454 1 13.2307 -10.2988 0.00236807 -3.54005 2.89594e-05
455 1 12.8777 -8.52554 1.80987 -3.54002 4.39364e-05
456 1 15.3559 -11.7166 -3.61263 -3.54014 6.92292e-06
457 1 15.0022 -9.94382 -1.80513 -3.54013 1.38788e-05
458 1 14.6477 -8.1702 0.00236829 -3.54023 5.71467e-06
459 1 14.2923 -6.3961 1.80987 -3.54035 9.71915e-06
460 1 16.7733 -9.58855 -3.61263 -3.54021 2.68774e-06
461 1 16.4183 -7.81511 -1.80513 -3.54028 2.31308e-06
462 1 16.0633 -6.0416 0.00236853 -3.5403 4.64648e-06
463 1 15.7085 -4.26835 1.80987 -3.54023 1.38065e-06
464 1 18.1896 -7.46027 -3.61263 -3.54026 1.31413e-06
465 1 17.8348 -5.68716 -1.80513 -3.54024 7.46302e-07
466 1 17.4802 -3.91408 0.00236885 -3.54019 4.046e-07
467 1 17.1255 -2.14091 1.80987 -3.54017 1.27183e-06
468 1 19.6065 -5.33258 -3.61263 -3.54021 2.08565e-07
469 1 19.2518 -3.55955 -1.80513 -3.5402 3.24504e-07
470 1 18.8968 -1.78638 0.0023693 -3.54022 4.39937e-07
471 1 18.5417 -0.013149 1.80987 -3.54026 2.12467e-06
472 1 21.0234 -3.20496 -3.61263 -3.54022 2.99994e-07
473 1 20.6685 -1.43194 -1.80513 -3.54024 9.13495e-07
474 1 20.3135 0.341023 0.00236964 -3.54025 1.86166e-06
475 1 19.9587 2.1138 1.80987 -3.54024 1.59321e-06
476 1 22.4404 -1.07761 -3.61263 -3.54024 8.89427e-07
477 1 22.0857 0.695128 -1.80513 -3.54024 9.07022e-07
478 1 21.7311 2.46773 0.00236994 -3.54022 4.29829e-07
479 1 21.3767 4.2402 1.80987 -3.54021 9.72264e-08
480 1 23.8581 1.04925 -3.61263 -3.54022 3.76543e-07
481 1 23.5036 2.82175 -1.80513 -3.54022 1.66377e-07
482 1 23.1493 4.59418 0.00237021 -3.54022 8.87886e-08
483 1 22.795 6.36655 1.80987 -3.54022 1.54171e-07
484 1 25.2761 3.17585 -3.61263 -3.54022 1.12122e-07
485 1 24.9218 4.94822 -1.80513 -3.54022 1.04123e-07
486 1 24.5676 6.72053 0.00237046 -3.54023 1.25678e-07
487 1 24.2135 8.49274 1.80987 -3.54022 1.14122e-07
488 1 26.6944 5.30232 -3.61263 -3.54022 7.63248e-08
489 1 26.3403 7.07458 -1.80513 -3.54022 6.01785e-08
490 1 25.9862 8.84679 0.00237079 -3.54022 6.299e-08
491 1 25.6322 10.6189 1.80987 -3.54021 1.74918e-07
492 1 28.1129 7.42872 -3.61263 -3.54022 3.66855e-08
493 1 27.7589 9.20094 -1.80513 -3.54021 8.18568e-08
494 1 27.4048 10.9732 0.00237111 -3.54021 1.84764e-07
495 1 27.0507 12.7454 1.80987 -3.54021 2.54031e-07
496 1 29.5314 9.55519 -3.61263 -3.54022 1.09277e-07
497 1 29.1773 11.3275 -1.80513 -3.54022 1.72928e-07
498 1 28.8231 13.0998 0.00237139 -3.54022 1.76316e-07
499 1 28.4689 14.8721 1.80987 -3.54021 1.50723e-07
500 1 30.9497 11.6818 -3.61263 -3.54022 1.42571e-07
501 1 30.5954 13.4542 -1.80513 -3.54022 1.03225e-07
502 1 30.2411 15.2266 0.00237167 -3.54021 8.34071e-08
503 1 29.8868 16.999 1.80987 -3.54021 9.34152e-08
504 1 32.3677 13.8087 -3.61263 -3.54021 3.65921e-08
505 1 32.0133 15.5811 -1.80513 -3.54021 4.9214e-08
506 1 31.6589 17.3536 0.00237189 -3.54022 8.00017e-08
507 1 33.7855 15.9356 -3.61263 -3.54022 6.88379e-08
508 1 33.4311 17.7081 -1.80513 -3.54022 1.00351e-07
509 1 35.2032 18.0627 -3.61263 -3.54023 1.14399e-07
510 1 11.0996 -18.0991 0.00236774 -3.53962 0.000189814
511 1 10.7492 -16.3281 1.80987 -3.53972 0.000249488
512 1 12.8732 -17.7443 -1.80513 -3.53995 7.61429e-05
513 1 12.5199 -15.9717 0.00236793 -3.54019 2.34649e-05
514 1 12.1649 -14.1982 1.80987 -3.54052 3.24344e-05
515 1 14.6454 -17.3888 -3.61263 -3.54018 1.19344e-05
516 1 14.2912 -15.6162 -1.80513 -3.54033 3.50281e-06
517 1 13.9368 -13.8435 0.00236813 -3.54037 1.04314e-05
518 1 13.5833 -12.0711 1.80987 -3.54024 5.06255e-06
519 1 16.0633 -15.2612 -3.61263 -3.54029 1.22391e-06
520 1 15.7094 -13.4889 -1.80513 -3.54023 9.30637e-07
521 1 15.3559 -11.7166 0.00236842 -3.54014 6.92292e-06
522 1 15.0022 -9.94382 1.80987 -3.54013 1.38788e-05
523 1 17.4818 -13.1341 -3.61263 -3.54019 1.93901e-06
524 1 17.1277 -11.3616 -1.80513 -3.54017 4.37207e-06
525 1 16.7733 -9.58855 0.00236872 -3.54021 2.68774e-06
526 1 16.4183 -7.81511 1.80987 -3.54028 2.31308e-06
527 1 18.8993 -11.0064 -3.61263 -3.54021 1.18206e-06
528 1 18.5445 -9.2334 -1.80513 -3.54024 6.96944e-07
529 1 18.1896 -7.46027 0.00236903 -3.54026 1.31413e-06
530 1 17.8348 -5.68716 1.80987 -3.54024 7.46302e-07
531 1 20.3161 -8.87841 -3.61263 -3.54024 3.72562e-07
532 1 19.9613 -7.10552 -1.80513 -3.54023 3.71376e-07
533 1 19.6065 -5.33258 0.00236945 -3.54021 2.08565e-07
534 1 19.2518 -3.55955 1.80987 -3.5402 3.24504e-07
535 1 21.7331 -6.75076 -3.61263 -3.54022 1.3119e-07
536 1 21.3783 -4.97791 -1.80513 -3.54021 1.68514e-07
537 1 21.0234 -3.20496 0.00236977 -3.54022 2.99994e-07
538 1 20.6685 -1.43194 1.80987 -3.54024 9.13495e-07
539 1 23.1502 -4.62324 -3.61263 -3.54022 1.93242e-07
540 1 22.7953 -2.85042 -1.80513 -3.54023 4.75202e-07
541 1 22.4404 -1.07761 0.00237004 -3.54024 8.89427e-07
542 1 22.0857 0.695128 1.80987 -3.54024 9.07022e-07
543 1 24.5674 -2.49596 -3.61263 -3.54023 4.64787e-07
544 1 24.2126 -0.723317 -1.80513 -3.54023 5.44964e-07
545 1 23.8581 1.04925 0.00237035 -3.54022 3.76543e-07
546 1 23.5036 2.82175 1.80987 -3.54022 1.66377e-07
547 1 25.985 -0.369036 -3.61263 -3.54022 2.87876e-07
548 1 25.6305 1.40343 -1.80513 -3.54022 1.81208e-07
549 1 25.2761 3.17585 0.00237067 -3.54022 1.12122e-07
550 1 24.9218 4.94822 1.80987 -3.54022 1.04123e-07
551 1 27.403 1.75764 -3.61263 -3.54022 1.01604e-07
552 1 27.0487 3.53 -1.80513 -3.54022 8.14996e-08
553 1 26.6944 5.30232 0.00237096 -3.54022 7.63248e-08
554 1 26.3403 7.07458 1.80987 -3.54022 6.01785e-08
555 1 28.8213 3.88419 -3.61263 -3.54022 5.18506e-08
556 1 28.467 5.65647 -1.80513 -3.54022 4.44263e-08
557 1 28.1129 7.42872 0.00237126 -3.54022 3.66855e-08
558 1 27.7589 9.20094 1.80987 -3.54021 8.18568e-08
559 1 30.2396 6.0107 -3.61263 -3.54022 2.60291e-08
560 1 29.8855 7.78294 -1.80513 -3.54022 4.04271e-08
561 1 29.5314 9.55519 0.00237155 -3.54022 1.09277e-07
562 1 29.1773 11.3275 1.80987 -3.54022 1.72928e-07
563 1 31.6581 8.13724 -3.61263 -3.54022 6.81502e-08
564 1 31.3039 9.90952 -1.80513 -3.54022 1.3965e-07
565 1 30.9497 11.6818 0.00237178 -3.54022 1.42571e-07
566 1 30.5954 13.4542 1.80987 -3.54022 1.03225e-07
567 1 33.0763 10.2639 -3.61263 -3.54022 1.46999e-07
568 1 32.722 12.0363 -1.80513 -3.54022 7.44223e-08
569 1 32.3677 13.8087 0.00237196 -3.54021 3.65921e-08
570 1 32.0133 15.5811 1.80987 -3.54021 4.9214e-08
571 1 34.4943 12.3908 -3.61263 -3.54021 5.43291e-09
572 1 34.1399 14.1632 -1.80513 -3.54021 1.4412e-08
573 1 33.7855 15.9356 0.00237212 -3.54022 6.88379e-08
574 1 33.4311 17.7081 1.80987 -3.54022 1.00351e-07
575 1 35.9122 14.5177 -3.61263 -3.54021 6.5034e-08
576 1 35.5577 16.2901 -1.80513 -3.54023 1.87865e-07