ITEM: TIMESTEP
0
ITEM: NUMBER OF ATOMS
2504
ITEM: BOX BOUNDS xy xz yz mm pp pp
-5.5498871899999997e+01 5.5498871899999997e+01 0.0000000000000000e+00
-1.8432957300000002e+01 1.8432957300000002e+01 0.0000000000000000e+00
-3.6150000000000002e+00 3.6150000000000002e+00 0.0000000000000000e+00
ITEM: ATOMS id type x y z c_eng c_csym
1 1 0.626803 16.807 -3.5919 -3.4354 3.42909
2 1 0.296334 -18.2348 -1.7844 -3.27612 8.92125
3 1 0.957325 13.0784 -3.5919 -3.50747 0.284034
4 1 0.820669 14.843 -1.7844 -3.50399 0.579009
5 1 0.626803 16.807 0.023098 -3.4354 3.42909
6 1 0.296334 -18.2348 1.8306 -3.27612 8.92125
7 1 2.55127 15.1943 -3.5919 -3.53892 0.117102
8 1 2.27359 17.0427 -1.7844 -3.51614 0.093522
9 1 3.95509 17.3904 -3.5919 -3.54252 0.0323216
10 1 0.426587 7.36032 -3.5919 -3.5168 0.118277
11 1 0.091078 9.07733 -1.7844 -3.46749 0.543264
12 1 1.74843 9.56759 -3.5919 -3.52772 0.0848857
13 1 1.28059 11.3447 -1.7844 -3.52552 0.249409
14 1 0.957325 13.0784 0.023098 -3.50747 0.284034
15 1 0.820669 14.843 1.8306 -3.50399 0.579009
16 1 3.13817 11.6809 -3.5919 -3.53169 0.0262576
17 1 2.84159 13.4068 -1.7844 -3.52128 0.0563644
18 1 2.55127 15.1943 0.023098 -3.53892 0.117102
19 1 2.27359 17.0427 1.8306 -3.51614 0.093522
20 1 4.64073 13.7766 -3.5919 -3.53406 0.0132965
21 1 4.30733 15.5579 -1.7844 -3.53733 0.0219387
22 1 3.95509 17.3904 0.023098 -3.54252 0.0323216
23 1 6.06214 15.9282 -3.5919 -3.54127 0.00492617
24 1 5.706 17.7217 -1.7844 -3.54513 0.0190591
25 1 7.49573 18.0525 -3.5919 -3.54206 0.00581239
26 1 1.15114 3.78214 -3.5919 -3.54713 0.0246733
27 1 0.780667 5.58649 -1.7844 -3.54563 0.0228808
28 1 0.426587 7.36032 0.023098 -3.5168 0.118077
29 1 0.091078 9.07733 1.8306 -3.46815 0.543264
30 1 2.54517 5.9479 -3.5919 -3.54024 0.00391805
31 1 2.19088 7.73427 -1.7844 -3.52501 0.0400469
32 1 1.74843 9.56759 0.023098 -3.52772 0.0848857
33 1 1.28059 11.3447 1.8306 -3.5256 0.249409
34 1 3.91004 8.13323 -3.5919 -3.54099 0.0103833
35 1 3.50376 9.92498 -1.7844 -3.54303 0.0460257
36 1 3.13817 11.6809 0.023098 -3.53169 0.0262576
37 1 2.84159 13.4068 1.8306 -3.52128 0.0563644
38 1 5.3051 10.2675 -3.5919 -3.54065 0.00772519
39 1 4.96912 12.0192 -1.7844 -3.53413 0.00476995
40 1 4.64073 13.7766 0.023099 -3.53406 0.0132965
41 1 4.30733 15.5579 1.8306 -3.53733 0.0219387
42 1 6.76571 12.3756 -3.5919 -3.53739 0.00229625
43 1 6.41952 14.1442 -1.7844 -3.53779 0.00231231
44 1 6.06214 15.9282 0.023099 -3.54127 0.00492617
45 1 5.706 17.7217 1.8306 -3.54513 0.0190591
46 1 8.19404 14.5077 -3.5919 -3.54038 0.000617372
47 1 7.83835 16.2815 -1.7844 -3.5417 0.00381252
48 1 7.49573 18.0525 0.023099 -3.54206 0.00581239
49 1 9.62943 16.6278 -3.5919 -3.54077 0.00151866
50 1 9.29571 18.3887 -1.7844 -3.53987 0.00106935
51 1 0.453875 -1.88588 -3.5919 -3.5179 0.0406303
52 1 0.133118 -0.197298 -1.7844 -3.50744 0.0991759
53 1 1.91693 0.229862 -3.5919 -3.53324 0.0128984
54 1 1.5383 1.98643 -1.7844 -3.53896 0.0104592
55 1 1.15114 3.78214 0.023098 -3.54713 0.0244733
56 1 0.780667 5.58649 1.8306 -3.54438 0.0228808
57 1 3.29615 2.40137 -3.5919 -3.54114 0.00166612
58 1 2.91052 4.17105 -1.7844 -3.5432 0.0044349
59 1 2.54517 5.9479 0.023098 -3.54025 0.00391805
60 1 2.19088 7.73427 1.8306 -3.52522 0.0400469
61 1 4.68267 4.56023 -3.5919 -3.53957 0.000646054
62 1 4.30615 6.33447 -1.7844 -3.53764 0.00388179
63 1 3.91004 8.13323 0.023098 -3.54099 0.0103833
64 1 3.50376 9.92498 1.8306 -3.54303 0.0460257
65 1 6.06175 6.72264 -3.5919 -3.54108 0.00259348
66 1 5.67322 8.50035 -1.7844 -3.54296 0.0102173
67 1 5.3051 10.2675 0.023099 -3.54065 0.00772519
68 1 4.96912 12.0192 1.8306 -3.53413 0.00476995
69 1 7.46245 8.85798 -3.5919 -3.54086 0.00275699
70 1 7.10882 10.616 -1.7844 -3.53869 0.000732426
71 1 6.76571 12.3756 0.023099 -3.53739 0.00229625
72 1 6.41952 14.1442 1.8306 -3.53779 0.00231231
73 1 8.9019 10.9735 -3.5919 -3.53895 0.000367913
74 1 8.54973 12.7371 -1.7844 -3.53921 0.000431947
75 1 8.19404 14.5077 0.023099 -3.54038 0.000617372
76 1 7.83835 16.2815 1.8306 -3.5417 0.00381252
77 1 10.3319 13.0973 -3.5919 -3.54025 0.000159938
78 1 9.97698 14.8633 -1.7844 -3.54087 0.000957459
79 1 9.62943 16.6278 0.023099 -3.54077 0.00151866
80 1 9.29571 18.3887 1.8306 -3.53987 0.00106935
81 1 11.7668 15.215 -3.5919 -3.54046 0.000465316
82 1 11.4247 16.9746 -1.7844 -3.53993 0.000324138
83 1 13.217 17.3252 -3.5919 -3.53961 0.000237758
84 1 1.22377 -5.37574 -3.5919 -3.54635 0.0760031
85 1 0.814701 -3.62836 -1.7844 -3.54947 0.065158
86 1 0.453875 -1.88588 0.023098 -3.5179 0.0404303
87 1 0.133118 -0.197298 1.8306 -3.5068 0.0991759
88 1 2.62743 -3.23491 -3.5919 -3.54036 0.00847929
89 1 2.27625 -1.51427 -1.7844 -3.53385 0.0101575
90 1 1.91693 0.229862 0.023098 -3.53324 0.0127984
91 1 1.5383 1.98643 1.8306 -3.53829 0.0104592
92 1 4.06418 -1.11308 -3.5919 -3.53817 0.00471283
93 1 3.68518 0.636826 -1.7844 -3.5393 0.00185818
94 1 3.29615 2.40137 0.023098 -3.54114 0.00166612
95 1 2.91052 4.17105 1.8306 -3.54341 0.0044349
96 1 5.45181 1.03506 -3.5919 -3.54056 0.000740695
97 1 5.06427 2.79578 -1.7844 -3.54076 0.000391495
98 1 4.68267 4.56023 0.023099 -3.53957 0.000646054
99 1 4.30615 6.33447 1.8306 -3.53764 0.00388179
100 1 6.83502 3.18118 -3.5919 -3.53972 0.000361114
101 1 6.45081 4.94742 -1.7844 -3.53928 0.000451172
102 1 6.06175 6.72264 0.023099 -3.54108 0.00259348
103 1 5.67322 8.50035 1.8306 -3.54296 0.0102173
104 1 8.21845 5.32619 -3.5919 -3.54033 0.00099617
105 1 7.83479 7.09426 -1.7844 -3.54128 0.0028876
106 1 7.46245 8.85798 0.023099 -3.54086 0.00275699
107 1 7.10882 10.616 1.8306 -3.53869 0.000732426
108 1 9.61931 7.45576 -3.5919 -3.54033 0.00115816
109 1 9.25619 9.21475 -1.7844 -3.53954 0.000324096
110 1 8.9019 10.9735 0.023099 -3.53895 0.000367913
111 1 8.54973 12.7371 1.8306 -3.53921 0.000431947
112 1 11.0456 9.57242 -3.5919 -3.53942 8.77364e-05
113 1 10.6885 11.3333 -1.7844 -3.53959 6.31465e-05
114 1 10.3319 13.0973 0.023099 -3.54025 0.000159938
115 1 9.97698 14.8633 1.8306 -3.54087 0.000957459
116 1 12.4731 11.6912 -3.5919 -3.54004 6.94383e-05
117 1 12.1175 13.4536 -1.7844 -3.54043 0.000283758
118 1 11.7668 15.215 0.0231 -3.54046 0.000465316
119 1 11.4247 16.9746 1.8306 -3.53993 0.000324138
120 1 13.9055 13.8068 -3.5919 -3.54023 0.000162946
121 1 13.5582 15.5663 -1.7844 -3.54001 0.000117265
122 1 13.217 17.3252 0.0231 -3.53961 0.000237758
123 1 15.3471 15.9189 -3.5919 -3.53981 0.000100133
124 1 15.004 17.6795 -1.7844 -3.53963 0.000293841
125 1 16.7858 18.0364 -3.5919 -3.53978 0.000243783
126 1 0.73567 -10.8786 -3.5919 -3.46765 2.55527
127 1 0.489152 -9.12951 -1.7844 -3.29824 7.97789
128 1 2.15234 -8.809 -3.5919 -3.49896 0.256559
129 1 1.71943 -7.04805 -1.7844 -3.5 0.24395
130 1 1.22377 -5.37574 0.023098 -3.54636 0.0758031
131 1 0.814701 -3.62836 1.8306 -3.5484 0.065158
132 1 3.4563 -6.68586 -3.5919 -3.5304 0.0626872
133 1 3.0336 -4.93789 -1.7844 -3.53249 0.0440956
134 1 2.62743 -3.23491 0.023098 -3.54036 0.00847929
135 1 2.27625 -1.51427 1.8306 -3.53416 0.0101575
136 1 4.81907 -4.58215 -3.5919 -3.53581 0.0186369
137 1 4.44145 -2.84445 -1.7844 -3.53423 0.0095103
138 1 4.06418 -1.11308 0.023099 -3.53817 0.00471283
139 1 3.68518 0.636826 1.8306 -3.53941 0.00185818
140 1 6.21973 -2.4756 -3.5919 -3.53673 0.00655299
141 1 5.83963 -0.720571 -1.7844 -3.53834 0.00328469
142 1 5.45181 1.03506 0.023099 -3.54056 0.000740695
143 1 5.06427 2.79578 1.8306 -3.54076 0.000391495
144 1 7.60417 -0.345989 -3.5919 -3.539 0.0022333
145 1 7.22011 1.41861 -1.7844 -3.53972 0.00111929
146 1 6.83502 3.18118 0.023099 -3.53972 0.000361114
147 1 6.45081 4.94742 1.8306 -3.53928 0.000451172
148 1 8.98576 1.78931 -3.5919 -3.53937 0.000988997
149 1 8.60349 3.55781 -1.7844 -3.53949 0.000625766
150 1 8.21845 5.32619 0.023099 -3.54033 0.00099617
151 1 7.83479 7.09426 1.8306 -3.54128 0.0028876
152 1 10.3713 3.92406 -3.5919 -3.53988 0.000860501
153 1 9.99273 5.69241 -1.7844 -3.54036 0.00125978
154 1 9.61931 7.45576 0.023099 -3.54033 0.00115816
155 1 9.25619 9.21475 1.8306 -3.53954 0.000324096
156 1 11.7715 6.04955 -3.5919 -3.54006 0.000748082
157 1 11.4059 7.8124 -1.7844 -3.53973 0.000340582
158 1 11.0456 9.57242 0.0231 -3.53942 8.77364e-05
159 1 10.6885 11.3333 1.8306 -3.53959 6.31465e-05
160 1 13.1899 8.16649 -3.5919 -3.53968 0.00016901
161 1 12.8309 9.92895 -1.7844 -3.5397 7.03888e-05
162 1 12.4731 11.6912 0.0231 -3.54004 6.94383e-05
163 1 12.1175 13.4536 1.8306 -3.54043 0.000283758
164 1 14.614 10.283 -3.5919 -3.53997 0.00010044
165 1 14.2582 12.0457 -1.7844 -3.54017 0.000131639
166 1 13.9055 13.8068 0.0231 -3.54023 0.000162946
167 1 13.5582 15.5663 1.8306 -3.54001 0.000117265
168 1 16.0433 12.3977 -3.5919 -3.54013 9.70526e-05
169 1 15.6934 14.1589 -1.7844 -3.54002 6.4887e-05
170 1 15.3471 15.9189 0.0231 -3.53981 0.000100133
171 1 15.004 17.6795 1.8306 -3.53963 0.000293841
172 1 17.4787 14.5112 -3.5919 -3.53993 6.53739e-05
173 1 17.1319 16.2732 -1.7844 -3.53981 0.000141978
174 1 16.7858 18.0364 0.0231 -3.53978 0.000243783
175 1 18.9124 16.6287 -3.5919 -3.5399 0.000135556
176 1 18.5636 18.3944 -1.7844 -3.53993 0.00015715
177 1 0.997342 -14.4926 -3.5919 -3.48975 0.452612
178 1 0.894115 -12.7517 -1.7844 -3.52998 0.421775
179 1 0.73567 -10.8786 0.023098 -3.46765 2.55527
180 1 0.489152 -9.12951 1.8306 -3.29494 7.97789
181 1 2.68057 -12.4498 -3.5919 -3.54191 0.129345
182 1 2.45301 -10.6611 -1.7844 -3.533 0.100719
183 1 2.15234 -8.809 0.023098 -3.49896 0.256459
184 1 1.71943 -7.04805 1.8306 -3.50035 0.24395
185 1 4.17074 -10.318 -3.5919 -3.54212 0.0295676
186 1 3.83532 -8.4992 -1.7844 -3.53809 0.0113208
187 1 3.4563 -6.68586 0.023098 -3.5304 0.0626872
188 1 3.0336 -4.93789 1.8306 -3.53268 0.0440956
189 1 5.55403 -8.15745 -3.5919 -3.54307 0.00309268
190 1 5.19136 -6.35715 -1.7844 -3.54078 0.00787554
191 1 4.81907 -4.58215 0.023099 -3.53581 0.0186369
192 1 4.44145 -2.84445 1.8306 -3.53423 0.0095103
193 1 6.94187 -6.02125 -3.5919 -3.54148 0.000804145
194 1 6.58565 -4.24156 -1.7844 -3.53866 0.00323743
195 1 6.21973 -2.4756 0.023099 -3.53673 0.00655299
196 1 5.83963 -0.720571 1.8306 -3.53834 0.00328469
197 1 8.34377 -3.89519 -3.5919 -3.53964 0.000641602
198 1 7.98002 -2.11721 -1.7844 -3.53886 0.00199049
199 1 7.60417 -0.345989 0.023099 -3.539 0.0022333
200 1 7.22011 1.41861 1.8306 -3.53972 0.00111929
201 1 9.73546 -1.76166 -3.5919 -3.53978 0.000475669
202 1 9.36388 0.016732 -1.7844 -3.53954 0.000962579
203 1 8.98576 1.78931 0.023099 -3.53937 0.000988997
204 1 8.60349 3.55781 1.8306 -3.53949 0.000625766
205 1 11.1226 0.374017 -3.5919 -3.53983 0.000361431
206 1 10.7491 2.15123 -1.7844 -3.53965 0.000625397
207 1 10.3713 3.92406 0.0231 -3.53988 0.000860501
208 1 9.99273 5.69241 1.8306 -3.54036 0.00125978
209 1 12.513 2.50716 -3.5919 -3.54004 0.000452316
210 1 12.1417 4.28124 -1.7844 -3.54011 0.000749004
211 1 11.7715 6.04955 0.0231 -3.54006 0.000748082
212 1 11.4059 7.8124 1.8306 -3.53973 0.000340582
213 1 13.9146 4.63292 -3.5919 -3.54014 0.000424516
214 1 13.551 6.40183 -1.7844 -3.53991 0.000333265
215 1 13.1899 8.16649 0.0231 -3.53968 0.00016901
216 1 12.8309 9.92895 1.8306 -3.5397 7.03888e-05
217 1 15.3295 6.75192 -3.5919 -3.53994 0.000153188
218 1 14.9714 8.51857 -1.7844 -3.53986 0.000118186
219 1 14.614 10.283 0.0231 -3.53997 0.00010044
220 1 14.2582 12.0457 1.8306 -3.54017 0.000131639
221 1 16.7513 8.86894 -3.5919 -3.54005 9.07195e-05
222 1 16.3964 10.6345 -1.7844 -3.54011 0.000102741
223 1 16.0433 12.3977 0.0231 -3.54013 9.70526e-05
224 1 15.6934 14.1589 1.8306 -3.54002 6.4887e-05
225 1 18.1781 10.9845 -3.5919 -3.54014 6.63369e-05
226 1 17.8274 12.7487 -1.7844 -3.54006 5.55128e-05
227 1 17.4787 14.5112 0.0231 -3.53993 6.53739e-05
228 1 17.1319 16.2732 1.8306 -3.53981 0.000141978
229 1 19.6092 13.0996 -3.5919 -3.54003 4.66082e-05
230 1 19.2607 14.8641 -1.7844 -3.53994 8.42745e-05
231 1 18.9124 16.6287 0.0231 -3.5399 0.000135556
232 1 18.5636 18.3944 1.8306 -3.53993 0.00015715
233 1 21.0393 15.2179 -3.5919 -3.54 8.1311e-05
234 1 20.6895 16.9848 -1.7844 -3.53999 0.000100004
235 1 22.4641 17.3411 -3.5919 -3.54007 6.45518e-05
236 1 1.89198 -17.8946 -3.5919 -3.4494 0.591447
237 1 1.36527 -16.1073 -1.7844 -3.44509 0.662645
238 1 0.997342 -14.4926 0.023098 -3.48975 0.452612
239 1 0.894115 -12.7517 1.8306 -3.52998 0.421775
240 1 3.25297 -15.8499 -3.5919 -3.51729 0.102629
241 1 2.95839 -14.1595 -1.7844 -3.50872 0.0553496
242 1 2.68057 -12.4498 0.023098 -3.54191 0.129345
243 1 2.45301 -10.6611 1.8306 -3.53311 0.100719
244 1 4.791 -13.8385 -3.5919 -3.52976 0.0216397
245 1 4.4881 -12.0977 -1.7844 -3.53389 0.0284362
246 1 4.17074 -10.318 0.023099 -3.54212 0.0295676
247 1 3.83532 -8.4992 1.8306 -3.53818 0.0113208
248 1 6.25439 -11.739 -3.5919 -3.53667 0.00735316
249 1 5.9094 -9.95601 -1.7844 -3.54085 0.00318912
250 1 5.55403 -8.15745 0.023099 -3.54307 0.00309268
251 1 5.19136 -6.35715 1.8306 -3.54078 0.00787554
252 1 7.65557 -9.59779 -3.5919 -3.54027 0.000274564
253 1 7.29808 -7.80898 -1.7844 -3.54187 0.000865755
254 1 6.94187 -6.02125 0.023099 -3.54148 0.000804145
255 1 6.58565 -4.24156 1.8306 -3.53866 0.00323743
256 1 9.05321 -7.46 -3.5919 -3.5406 0.000112301
257 1 8.6993 -5.67677 -1.7844 -3.54044 7.73288e-05
258 1 8.34377 -3.89519 0.023099 -3.53964 0.000641602
259 1 7.98002 -2.11721 1.8306 -3.53886 0.00199049
260 1 10.4572 -5.32687 -3.5919 -3.53995 8.74574e-05
261 1 10.0994 -3.54382 -1.7844 -3.53992 0.000200524
262 1 9.73546 -1.76166 0.023099 -3.53978 0.000475669
263 1 9.36388 0.016732 1.8306 -3.53954 0.000962579
264 1 11.8552 -3.19038 -3.5919 -3.54001 7.09856e-05
265 1 11.4913 -1.40706 -1.7844 -3.54003 0.000138149
266 1 11.1226 0.374017 0.0231 -3.53983 0.000361431
267 1 10.7491 2.15123 1.8306 -3.53965 0.000625397
268 1 13.2491 -1.05314 -3.5919 -3.54009 7.3713e-05
269 1 12.8826 0.728503 -1.7844 -3.54005 0.000198247
270 1 12.513 2.50716 0.0231 -3.54004 0.000452316
271 1 12.1417 4.28124 1.8306 -3.54011 0.000749004
272 1 14.6452 1.08091 -3.5919 -3.54021 0.000177205
273 1 14.2798 2.85903 -1.7844 -3.54023 0.000331082
274 1 13.9146 4.63292 0.0231 -3.54014 0.000424516
275 1 13.551 6.40183 1.8306 -3.53991 0.000333265
276 1 16.0494 3.20866 -3.5919 -3.54026 0.000198882
277 1 15.6888 4.98213 -1.7844 -3.54012 0.00019272
278 1 15.3295 6.75192 0.0231 -3.53994 0.000153188
279 1 14.9714 8.51857 1.8306 -3.53986 0.000118186
280 1 17.4636 5.33053 -3.5919 -3.54014 8.80831e-05
281 1 17.1071 7.101 -1.7844 -3.54006 8.25137e-05
282 1 16.7513 8.86894 0.0231 -3.54005 9.07195e-05
283 1 16.3964 10.6345 1.8306 -3.54011 0.000102741
284 1 18.8843 7.4496 -3.5919 -3.54016 5.09481e-05
285 1 18.5307 9.21819 -1.7844 -3.54016 6.2415e-05
286 1 18.1781 10.9845 0.0231 -3.54014 6.63369e-05
287 1 17.8274 12.7487 1.8306 -3.54006 5.55128e-05
288 1 20.3095 9.56708 -3.5919 -3.54019 3.3264e-05
289 1 19.9588 11.3342 -1.7844 -3.54013 3.51873e-05
290 1 19.6092 13.0996 0.023101 -3.54003 4.66082e-05
291 1 19.2607 14.8641 1.8306 -3.53994 8.42745e-05
292 1 21.7379 11.6843 -3.5919 -3.54012 2.49874e-05
293 1 21.3886 13.4513 -1.7844 -3.54005 4.91023e-05
294 1 21.0393 15.2179 0.023101 -3.54 8.1311e-05
295 1 20.6895 16.9848 1.8306 -3.53999 0.000100004
296 1 23.1655 13.8038 -3.5919 -3.54008 4.60732e-05
297 1 22.8153 15.5723 -1.7844 -3.54006 6.28872e-05
298 1 22.4641 17.3411 0.023101 -3.54007 6.45518e-05
299 1 24.5893 15.9271 -3.5919 -3.54011 4.26827e-05
300 1 24.2369 17.6975 -1.7844 -3.54012 3.91397e-05
301 1 26.0085 18.0538 -3.5919 -3.54016 2.30787e-05
302 1 1.89198 -17.8946 0.023098 -3.4494 0.591447
303 1 1.36527 -16.1073 1.8306 -3.44509 0.662645
304 1 3.59409 -17.6375 -1.7844 -3.5399 0.0796483
305 1 3.25297 -15.8499 0.023098 -3.51729 0.102629
306 1 2.95839 -14.1595 1.8306 -3.50872 0.0553496
307 1 5.37501 -17.3547 -3.5919 -3.54444 0.0172563
308 1 5.08049 -15.5871 -1.7844 -3.53586 0.0084516
309 1 4.791 -13.8385 0.023099 -3.52976 0.0216397
310 1 4.4881 -12.0977 1.8306 -3.53389 0.0284362
311 1 6.87884 -15.2817 -3.5919 -3.53836 0.00523701
312 1 6.57727 -13.513 -1.7844 -3.53601 0.0102686
313 1 6.25439 -11.739 0.023099 -3.53667 0.00735316
314 1 5.9094 -9.95601 1.8306 -3.54085 0.00318912
315 1 8.34189 -13.171 -3.5919 -3.53864 0.00379212
316 1 8.00639 -11.3858 -1.7844 -3.53889 0.0014707
317 1 7.65557 -9.59779 0.023099 -3.54027 0.000274564
318 1 7.29808 -7.80898 1.8306 -3.54187 0.000865755
319 1 9.7581 -11.0333 -3.5919 -3.54009 0.000303192
320 1 9.40738 -9.24562 -1.7844 -3.54033 0.000120065
321 1 9.05321 -7.46 0.023099 -3.5406 0.000112301
322 1 8.6993 -5.67677 1.8306 -3.54044 7.73288e-05
323 1 11.1637 -8.89448 -3.5919 -3.54032 6.09487e-05
324 1 10.8114 -7.11013 -1.7844 -3.54008 2.46304e-05
325 1 10.4572 -5.32687 0.0231 -3.53995 8.74574e-05
326 1 10.0994 -3.54382 1.8306 -3.53992 0.000200524
327 1 12.5701 -6.75805 -3.5919 -3.54 5.32901e-05
328 1 12.2146 -4.97429 -1.7844 -3.53993 6.75168e-05
329 1 11.8552 -3.19038 0.0231 -3.54001 7.09856e-05
330 1 11.4913 -1.40706 1.8306 -3.54003 0.000138149
331 1 13.9725 -4.62024 -3.5919 -3.54004 4.0927e-05
332 1 13.6125 -2.83642 -1.7844 -3.54007 3.59801e-05
333 1 13.2491 -1.05314 0.0231 -3.54009 7.3713e-05
334 1 12.8826 0.728503 1.8306 -3.54005 0.000198247
335 1 15.3718 -2.48243 -3.5919 -3.54015 3.76346e-05
336 1 15.0094 -0.700006 -1.7844 -3.54017 7.81157e-05
337 1 14.6452 1.08091 0.0231 -3.54021 0.000177205
338 1 14.2798 2.85903 1.8306 -3.54023 0.000331082
339 1 16.7726 -0.347674 -3.5919 -3.54026 9.25691e-05
340 1 16.411 1.43177 -1.7844 -3.54029 0.000152844
341 1 16.0494 3.20866 0.0231 -3.54026 0.000198882
342 1 15.6888 4.98213 1.8306 -3.54012 0.00019272
343 1 18.1795 1.78178 -3.5919 -3.5403 0.000107987
344 1 17.8211 3.55743 -1.7844 -3.54024 0.000104294
345 1 17.4636 5.33053 0.0231 -3.54014 8.80831e-05
346 1 17.1071 7.101 1.8306 -3.54006 8.25137e-05
347 1 19.594 3.90616 -3.5919 -3.54023 5.57027e-05
348 1 19.2388 5.67887 -1.7844 -3.54018 4.71928e-05
349 1 18.8843 7.4496 0.023101 -3.54016 5.09481e-05
350 1 18.5307 9.21819 1.8306 -3.54016 6.2415e-05
351 1 21.0142 6.02746 -3.5919 -3.54022 2.85998e-05
352 1 20.6614 7.79814 -1.7844 -3.54021 3.00802e-05
353 1 20.3095 9.56708 0.023101 -3.54019 3.3264e-05
354 1 19.9588 11.3342 1.8306 -3.54013 3.51873e-05
355 1 22.4384 8.14706 -3.5919 -3.54023 1.45143e-05
356 1 22.0877 9.91631 -1.7844 -3.54019 1.55406e-05
357 1 21.7379 11.6843 0.023101 -3.54012 2.49874e-05
358 1 21.3886 13.4513 1.8306 -3.54005 4.91023e-05
359 1 23.8649 10.2664 -3.5919 -3.54017 1.09014e-05
360 1 23.5152 12.0353 -1.7844 -3.54012 2.49737e-05
361 1 23.1655 13.8038 0.023101 -3.54008 4.60732e-05
362 1 22.8153 15.5723 1.8306 -3.54006 6.28872e-05
363 1 25.2909 12.3873 -3.5919 -3.54014 2.46913e-05
364 1 24.9405 14.1571 -1.7844 -3.54011 3.705e-05
365 1 24.5893 15.9271 0.023101 -3.54011 4.26827e-05
366 1 24.2369 17.6975 1.8306 -3.54012 3.91397e-05
367 1 26.714 14.5111 -3.5919 -3.54015 2.66614e-05
368 1 26.3618 16.2822 -1.7844 -3.54015 2.68963e-05
369 1 26.0085 18.0538 0.023101 -3.54016 2.30787e-05
370 1 28.1333 16.6376 -3.5919 -3.54017 1.6208e-05
371 1 27.7794 18.4099 -1.7844 -3.54018 1.33035e-05
372 1 3.59409 -17.6375 1.8306 -3.5399 0.0796483
373 1 5.37501 -17.3547 0.023099 -3.54444 0.0172563
374 1 5.08049 -15.5871 1.8306 -3.53586 0.0084516
375 1 7.17818 -17.0475 -1.7844 -3.54057 0.00336068
376 1 6.87884 -15.2817 0.023099 -3.53836 0.00523701
377 1 6.57727 -13.513 1.8306 -3.53601 0.0102686
378 1 8.97595 -16.7162 -3.5919 -3.53907 0.00229981
379 1 8.66207 -14.9488 -1.7844 -3.53876 0.00444515
380 1 8.34189 -13.171 0.023099 -3.53864 0.00379212
381 1 8.00639 -11.3858 1.8306 -3.53889 0.0014707
382 1 10.4356 -14.5994 -3.5919 -3.53934 0.00227961
383 1 10.1012 -12.8197 -1.7844 -3.5398 0.00128624
384 1 9.7581 -11.0333 0.023099 -3.54009 0.000303192
385 1 9.40738 -9.24562 1.8306 -3.54033 0.000120065
386 1 11.8615 -12.4635 -3.5919 -3.54024 0.000467578
387 1 11.5141 -10.6798 -1.7844 -3.54043 0.00017084
388 1 11.1637 -8.89448 0.0231 -3.54032 6.09487e-05
389 1 10.8114 -7.11013 1.8306 -3.54008 2.46304e-05
390 1 13.2743 -10.3243 -3.5919 -3.54039 0.000131139
391 1 12.923 -8.54154 -1.7844 -3.54023 7.05579e-05
392 1 12.5701 -6.75805 0.0231 -3.54 5.32901e-05
393 1 12.2146 -4.97429 1.8306 -3.53993 6.75168e-05
394 1 14.6841 -8.1862 -3.5919 -3.54018 7.9814e-05
395 1 14.3295 -6.40373 -1.7844 -3.54007 5.98395e-05
396 1 13.9725 -4.62024 0.0231 -3.54004 4.0927e-05
397 1 13.6125 -2.83642 1.8306 -3.54007 3.59801e-05
398 1 16.0902 -6.04781 -3.5919 -3.54015 4.96317e-05
399 1 15.7321 -4.26534 -1.7844 -3.54014 3.39439e-05
400 1 15.3718 -2.48243 0.0231 -3.54015 3.76346e-05
401 1 15.0094 -0.700006 1.8306 -3.54017 7.81157e-05
402 1 17.4938 -3.91002 -3.5919 -3.54022 3.79172e-05
403 1 17.1337 -2.12861 -1.7844 -3.54023 5.26613e-05
404 1 16.7726 -0.347674 0.0231 -3.54026 9.25691e-05
405 1 16.411 1.43177 1.8306 -3.54029 0.000152844
406 1 18.8984 -1.77504 -3.5919 -3.54029 6.34229e-05
407 1 18.5388 0.004049 -1.7844 -3.54031 8.95275e-05
408 1 18.1795 1.78178 0.0231 -3.5403 0.000107987
409 1 17.8211 3.55743 1.8306 -3.54024 0.000104294
410 1 20.3075 0.355483 -3.5919 -3.54031 7.10848e-05
411 1 19.9503 2.1316 -1.7844 -3.54028 6.80204e-05
412 1 19.594 3.90616 0.023101 -3.54023 5.57027e-05
413 1 19.2388 5.67887 1.8306 -3.54018 4.71928e-05
414 1 21.7226 2.48163 -3.5919 -3.54027 4.24933e-05
415 1 21.3679 4.25522 -1.7844 -3.54024 3.3147e-05
416 1 21.0142 6.02746 0.023101 -3.54022 2.85998e-05
417 1 20.6614 7.79814 1.8306 -3.54021 3.00802e-05
418 1 23.1425 4.60479 -3.5919 -3.54025 2.08054e-05
419 1 22.79 6.37652 -1.7844 -3.54024 1.65547e-05
420 1 22.4384 8.14706 0.023101 -3.54023 1.45143e-05
421 1 22.0877 9.91631 1.8306 -3.54019 1.55406e-05
422 1 24.5659 6.72624 -3.5919 -3.54024 8.16974e-06
423 1 24.215 8.49671 -1.7844 -3.54021 6.53355e-06
424 1 23.8649 10.2664 0.023101 -3.54017 1.09014e-05
425 1 23.5152 12.0353 1.8306 -3.54012 2.49737e-05
426 1 25.9911 8.8473 -3.5919 -3.5402 5.25981e-06
427 1 25.641 10.6174 -1.7844 -3.54017 1.23086e-05
428 1 25.2909 12.3873 0.023101 -3.54014 2.46913e-05
429 1 24.9405 14.1571 1.8306 -3.54011 3.705e-05
430 1 27.4159 10.9695 -3.5919 -3.54017 1.37834e-05
431 1 27.0652 12.7402 -1.7844 -3.54015 2.16056e-05
432 1 26.714 14.5111 0.023101 -3.54015 2.66614e-05
433 1 26.3618 16.2822 1.8306 -3.54015 2.68963e-05
434 1 28.8384 13.0939 -3.5919 -3.54017 1.69109e-05
435 1 28.4863 14.8655 -1.7844 -3.54017 1.77699e-05
436 1 28.1333 16.6376 0.023101 -3.54017 1.6208e-05
437 1 27.7794 18.4099 1.8306 -3.54018 1.33035e-05
438 1 30.258 15.2204 -3.5919 -3.54019 1.11903e-05
439 1 29.9043 16.993 -1.7844 -3.54019 9.51779e-06
440 1 31.6749 17.3485 -3.5919 -3.5402 5.59231e-06
441 1 7.17818 -17.0475 1.8306 -3.54057 0.00336068
442 1 8.97595 -16.7162 0.023099 -3.53907 0.00229981
443 1 8.66207 -14.9488 1.8306 -3.53876 0.00444515
444 1 11.0915 -18.1323 -3.5919 -3.53925 0.000696482
445 1 10.7639 -16.3698 -1.7844 -3.53902 0.00187058
446 1 10.4356 -14.5994 0.023099 -3.53934 0.00227961
447 1 10.1012 -12.8197 1.8306 -3.5398 0.00128624
448 1 12.5437 -16.0147 -3.5919 -3.53942 0.00107801
449 1 12.2047 -14.2426 -1.7844 -3.53982 0.000907414
450 1 11.8615 -12.4635 0.0231 -3.54024 0.000467578
451 1 11.5141 -10.6798 1.8306 -3.54043 0.00017084
452 1 13.9727 -13.8827 -3.5919 -3.54009 0.000335764
453 1 13.6244 -12.1052 -1.7844 -3.54033 0.000205936
454 1 13.2743 -10.3243 0.0231 -3.54039 0.000131139
455 1 12.923 -8.54154 1.8306 -3.54023 7.05579e-05
456 1 15.3894 -11.7458 -3.5919 -3.54029 0.000105954
457 1 15.0372 -9.96707 -1.7844 -3.54028 9.6185e-05
458 1 14.6841 -8.1862 0.0231 -3.54018 7.9814e-05
459 1 14.3295 -6.40373 1.8306 -3.54007 5.98395e-05
460 1 16.8015 -9.60848 -3.5919 -3.54021 6.59119e-05
461 1 16.4465 -7.82904 -1.7844 -3.54018 6.43546e-05
462 1 16.0902 -6.04781 0.0231 -3.54015 4.96317e-05
463 1 15.7321 -4.26534 1.8306 -3.54014 3.39439e-05
464 1 18.2103 -7.47091 -3.5919 -3.5402 4.20537e-05
465 1 17.8526 -5.69102 -1.7844 -3.54021 3.862e-05
466 1 17.4938 -3.91002 0.0231 -3.54022 3.79172e-05
467 1 17.1337 -2.12861 1.8306 -3.54023 5.26613e-05
468 1 19.6169 -5.33402 -3.5919 -3.54025 3.23636e-05
469 1 19.2579 -3.55465 -1.7844 -3.54027 4.36426e-05
470 1 18.8984 -1.77504 0.023101 -3.54029 6.34229e-05
471 1 18.5388 0.004049 1.8306 -3.54031 8.95275e-05
472 1 21.0243 -3.19951 -3.5919 -3.54029 4.52866e-05
473 1 20.6657 -1.42175 -1.7844 -3.54031 6.13411e-05
474 1 20.3075 0.355483 0.023101 -3.54031 7.10848e-05
475 1 19.9503 2.1316 1.8306 -3.54028 6.80204e-05
476 1 22.4352 -1.06866 -3.5919 -3.5403 4.98802e-05
477 1 22.0784 0.70691 -1.7844 -3.54029 5.01958e-05
478 1 21.7226 2.48163 0.023101 -3.54027 4.24933e-05
479 1 21.3679 4.25522 1.8306 -3.54024 3.3147e-05
480 1 23.8507 1.0585 -3.5919 -3.54028 3.35676e-05
481 1 23.4961 2.83206 -1.7844 -3.54026 2.72023e-05
482 1 23.1425 4.60479 0.023101 -3.54025 2.08054e-05
483 1 22.79 6.37652 1.8306 -3.54024 1.65547e-05
484 1 25.2704 3.18294 -3.5919 -3.54026 1.699e-05
485 1 24.9176 4.95495 -1.7844 -3.54025 1.22046e-05
486 1 24.5659 6.72624 0.023101 -3.54024 8.16974e-06
487 1 24.215 8.49671 1.8306 -3.54021 6.53355e-06
488 1 26.693 5.30577 -3.5919 -3.54024 6.30556e-06
489 1 26.3417 7.07677 -1.7844 -3.54023 4.0749e-06
490 1 25.9911 8.8473 0.023101 -3.5402 5.25981e-06
491 1 25.641 10.6174 1.8306 -3.54017 1.23086e-05
492 1 28.1171 7.42818 -3.5919 -3.54021 3.43846e-06
493 1 27.7664 9.19888 -1.7844 -3.54019 6.9023e-06
494 1 27.4159 10.9695 0.023101 -3.54017 1.37834e-05
495 1 27.0652 12.7402 1.8306 -3.54015 2.16056e-05
496 1 29.541 9.55138 -3.5919 -3.54019 8.48103e-06
497 1 29.1899 11.3225 -1.7844 -3.54018 1.33882e-05
498 1 28.8384 13.0939 0.023101 -3.54017 1.69109e-05
499 1 28.4863 14.8655 1.8306 -3.54017 1.77699e-05
500 1 30.963 11.6762 -3.5919 -3.54019 1.13769e-05
501 1 30.6108 13.4481 -1.7844 -3.54018 1.20291e-05
502 1 30.258 15.2204 0.023101 -3.54019 1.11903e-05
503 1 29.9043 16.993 1.8306 -3.54019 9.51779e-06
504 1 32.3826 13.8028 -3.5919 -3.54019 7.80799e-06
505 1 32.0291 15.5755 -1.7844 -3.5402 6.83626e-06
506 1 31.6749 17.3485 0.023101 -3.5402 5.59231e-06
507 1 33.8001 15.9307 -3.5919 -3.54021 4.38697e-06
508 1 33.4454 17.7039 -1.7844 -3.54021 3.33951e-06
509 1 35.2159 18.0594 -3.5919 -3.54023 1.82161e-06
510 1 11.0915 -18.1323 0.0231 -3.53925 0.000696482
511 1 10.7639 -16.3698 1.8306 -3.53902 0.00187058
512 1 12.8799 -17.7801 -1.7844 -3.53934 0.000712284
513 1 12.5437 -16.0147 0.0231 -3.53942 0.00107801
514 1 12.2047 -14.2426 1.8306 -3.53982 0.000907414
515 1 14.6618 -17.4231 -3.5919 -3.53962 0.000497319
516 1 14.3185 -15.6555 -1.7844 -3.5398 0.000493872
517 1 13.9727 -13.8827 0.0231 -3.54009 0.000335764
518 1 13.6244 -12.1052 1.8306 -3.54033 0.000205936
519 1 16.0909 -15.2947 -3.5919 -3.54003 0.000204722
520 1 15.7409 -13.5219 -1.7844 -3.54019 0.000134
521 1 15.3894 -11.7458 0.0231 -3.54029 0.000105954
522 1 15.0372 -9.96707 1.8306 -3.54028 9.6185e-05
523 1 17.5094 -13.1609 -3.5919 -3.54021 6.15196e-05
524 1 17.1558 -11.3858 -1.7844 -3.54023 5.97721e-05
525 1 16.8015 -9.60848 0.0231 -3.54021 6.59119e-05
526 1 16.4465 -7.82904 1.8306 -3.54018 6.43546e-05
527 1 18.9229 -11.0256 -3.5919 -3.5402 3.41277e-05
528 1 18.567 -9.24918 -1.7844 -3.5402 4.00599e-05
529 1 18.2103 -7.47091 0.0231 -3.5402 4.20537e-05
530 1 17.8526 -5.69102 1.8306 -3.54021 3.862e-05
531 1 20.3332 -8.88979 -3.5919 -3.5402 2.15629e-05
532 1 19.9754 -7.11253 -1.7844 -3.54022 2.60766e-05
533 1 19.6169 -5.33402 0.023101 -3.54025 3.23636e-05
534 1 19.2579 -3.55465 1.8306 -3.54027 4.36426e-05
535 1 21.7419 -6.75442 -3.5919 -3.54024 1.84563e-05
536 1 21.3831 -4.97723 -1.7844 -3.54027 2.99194e-05
537 1 21.0243 -3.19951 0.023101 -3.54029 4.52866e-05
538 1 20.6657 -1.42175 1.8306 -3.54031 6.13411e-05
539 1 23.1512 -4.62093 -3.5919 -3.54028 2.80886e-05
540 1 22.7929 -2.84474 -1.7844 -3.5403 4.09859e-05
541 1 22.4352 -1.06866 0.023101 -3.5403 4.98802e-05
542 1 22.0784 0.70691 1.8306 -3.54029 5.01958e-05
543 1 24.5632 -2.49035 -3.5919 -3.54029 3.29725e-05
544 1 24.2065 -0.715703 -1.7844 -3.54029 3.62533e-05
545 1 23.8507 1.0585 0.023101 -3.54028 3.35676e-05
546 1 23.4961 2.83206 1.8306 -3.54026 2.72023e-05
547 1 25.979 -0.362792 -3.5919 -3.54027 2.4553e-05
548 1 25.6242 1.41032 -1.7844 -3.54026 2.15996e-05
549 1 25.2704 3.18294 0.023101 -3.54026 1.699e-05
550 1 24.9176 4.95495 1.8306 -3.54025 1.22046e-05
551 1 27.3983 1.7624 -3.5919 -3.54025 1.30058e-05
552 1 27.0452 3.5343 -1.7844 -3.54025 9.65324e-06
553 1 26.693 5.30577 0.023101 -3.54024 6.30556e-06
554 1 26.3417 7.07677 1.8306 -3.54023 4.0749e-06
555 1 28.8202 3.88616 -3.5919 -3.54024 4.86512e-06
556 1 28.4683 5.65729 -1.7844 -3.54023 3.28001e-06
557 1 28.1171 7.42818 0.023101 -3.54021 3.43846e-06
558 1 27.7664 9.19888 1.8306 -3.54019 6.9023e-06
559 1 30.2433 6.00951 -3.5919 -3.54021 2.43532e-06
560 1 29.892 7.78042 -1.7844 -3.5402 4.36843e-06
561 1 29.541 9.55138 0.023101 -3.54019 8.48103e-06
562 1 29.1899 11.3225 1.8306 -3.54018 1.33882e-05
563 1 31.6664 8.13341 -3.5919 -3.5402 5.43058e-06
564 1 31.3148 9.90466 -1.7844 -3.54019 8.91417e-06
565 1 30.963 11.6762 0.023101 -3.54019 1.13769e-05
566 1 30.6108 13.4481 1.8306 -3.54018 1.20291e-05
567 1 33.088 10.2586 -3.5919 -3.5402 8.10803e-06
568 1 32.7355 12.0305 -1.7844 -3.54019 8.42851e-06
569 1 32.3826 13.8028 0.023101 -3.54019 7.80799e-06
570 1 32.0291 15.5755 1.8306 -3.5402 6.83626e-06
571 1 34.5076 12.3852 -3.5919 -3.54019 5.25567e-06
572 1 34.1541 14.1578 -1.7844 -3.5402 4.80173e-06
573 1 33.8001 15.9307 0.023101 -3.54021 4.38697e-06
574 1 33.4454 17.7039 1.8306 -3.54021 3.33951e-06
575 1 35.9254 14.5129 -3.5919 -3.54021 3.45644e-06
576 1 35.5709 16.286 -1.7844 -3.54022 3.24968e-06
577 1 35.2159 18.0594 0.023101 -3.54023 1.82161e-06
578 1 37.3417 16.6412 -3.5919 -3.54024 2.4079e-06
579 1 36.9863 18.4147 -1.7844 -3.54023 4.82103e-07
580 1 12.8799 -17.7801 1.8306 -3.53934 0.000712284
581 1 14.6618 -17.4231 0.0231 -3.53962 0.000497319
582 1 14.3185 -15.6555 1.8306 -3.5398 0.000493872
583 1 16.4392 -17.0638 -1.7844 -3.53986 0.000269172
584 1 16.0909 -15.2947 0.0231 -3.54003 0.000204722
585 1 15.7409 -13.5219 1.8306 -3.54019 0.000134
586 1 18.2137 -16.7038 -3.5919 -3.54002 0.00013055
587 1 17.8622 -14.9337 -1.7844 -3.54013 8.66496e-05
588 1 17.5094 -13.1609 0.0231 -3.54021 6.15196e-05
589 1 17.1558 -11.3858 1.8306 -3.54023 5.97721e-05
590 1 19.6328 -14.573 -3.5919 -3.54017 4.09367e-05
591 1 19.2782 -12.8002 -1.7844 -3.5402 3.17885e-05