ITEM: TIMESTEP
0
ITEM: NUMBER OF ATOMS
2504
ITEM: BOX BOUNDS xy xz yz mm pp pp
-5.5498871899999997e+01 5.5498871899999997e+01 0.0000000000000000e+00
-1.8432957300000002e+01 1.8432957300000002e+01 0.0000000000000000e+00
-3.6150000000000002e+00 3.6150000000000002e+00 0.0000000000000000e+00
ITEM: ATOMS id type x y z c_eng c_csym
1 1 0.636411 16.7291 -3.60967 -3.44365 3.66398
2 1 0.286667 -18.3256 -1.80217 -3.28685 9.16033
3 1 1.01179 13.0217 -3.60967 -3.48653 0.406403
4 1 0.880329 14.7713 -1.80217 -3.50374 0.591843
5 1 0.636411 16.7291 0.00532785 -3.44365 3.66398
6 1 0.286667 -18.3256 1.81283 -3.28685 9.16033
7 1 2.60077 15.1657 -3.60967 -3.54195 0.121709
8 1 2.29407 16.9959 -1.80217 -3.52285 0.0759334
9 1 3.98694 17.3667 -3.60967 -3.546 0.0285294
10 1 0.590207 7.45945 -3.60967 -3.48711 2.41721
11 1 0.2393 9.24597 -1.80217 -3.30602 6.70634
12 1 1.86539 9.63998 -3.60967 -3.47587 0.472279
13 1 1.37175 11.3951 -1.80217 -3.4632 0.529796
14 1 1.01179 13.0217 0.00532812 -3.48653 0.406403
15 1 0.880329 14.7713 1.81283 -3.50374 0.591843
16 1 3.24419 11.7108 -3.60967 -3.5203 0.0536212
17 1 2.93352 13.4118 -1.80217 -3.5108 0.0823761
18 1 2.60077 15.1657 0.00532823 -3.54195 0.121709
19 1 2.29407 16.9959 1.81283 -3.52285 0.0759334
20 1 4.72242 13.7922 -3.60967 -3.5326 0.0155376
21 1 4.36279 15.5597 -1.80217 -3.53822 0.0106286
22 1 3.98694 17.3667 0.00532837 -3.546 0.0285294
23 1 6.11742 15.9387 -3.60967 -3.54076 0.00231112
24 1 5.74582 17.7189 -1.80217 -3.54468 0.0111475
25 1 7.53118 18.0644 -3.60967 -3.54105 0.00189444
26 1 1.05652 3.78677 -3.60967 -3.50188 0.318824
27 1 0.871098 5.54563 -1.80217 -3.52264 0.331901
28 1 0.590207 7.45945 0.00532785 -3.48711 2.4172
29 1 0.2393 9.24597 1.81283 -3.30623 6.70634
30 1 2.59936 5.94228 -3.60967 -3.54228 0.079389
31 1 2.27499 7.75822 -1.80217 -3.52398 0.0531442
32 1 1.86539 9.63998 0.00532828 -3.47587 0.472279
33 1 1.37175 11.3951 1.81283 -3.4632 0.529796
34 1 3.97655 8.14083 -3.60967 -3.54561 0.0216292
35 1 3.59547 9.94587 -1.80217 -3.54333 0.049768
36 1 3.24419 11.7108 0.00532841 -3.5203 0.0536212
37 1 2.93352 13.4118 1.81283 -3.5108 0.0823761
38 1 5.38323 10.2713 -3.60967 -3.54283 0.00583772
39 1 5.05828 12.0309 -1.80217 -3.53461 0.00877165
40 1 4.72242 13.7922 0.00532874 -3.5326 0.0155376
41 1 4.36279 15.5597 1.81283 -3.53822 0.0106286
42 1 6.8371 12.3815 -3.60967 -3.53843 0.00322943
43 1 6.48648 14.157 -1.80217 -3.53822 0.00194448
44 1 6.11742 15.9387 0.00532879 -3.54076 0.00231112
45 1 5.74582 17.7189 1.81283 -3.54468 0.0111475
46 1 8.24839 14.5179 -3.60967 -3.54078 0.000384262
47 1 7.88609 16.2948 -1.80217 -3.54136 0.00207357
48 1 7.53118 18.0644 0.00532893 -3.54105 0.00189444
49 1 9.66474 16.6441 -3.60967 -3.54074 0.000535367
50 1 9.31791 18.4108 -1.80217 -3.53962 0.000212245
51 1 0.596505 -1.76389 -3.60967 -3.49189 2.28802
52 1 0.249002 0.0160736 -1.80217 -3.31422 6.28485
53 1 1.90427 0.395521 -3.60967 -3.48712 0.40858
54 1 1.43122 2.14593 -1.80217 -3.4719 0.438804
55 1 1.05652 3.78677 0.00532812 -3.50188 0.318813
56 1 0.871098 5.54563 1.81283 -3.52241 0.331901
57 1 3.28065 2.4798 -3.60967 -3.52344 0.0407853
58 1 2.94943 4.19091 -1.80217 -3.51825 0.0545213
59 1 2.59936 5.94228 0.00532823 -3.54228 0.079389
60 1 2.27499 7.75822 1.81283 -3.52401 0.0531442
61 1 4.7321 4.5758 -3.60967 -3.53364 0.0111817
62 1 4.36252 6.34162 -1.80217 -3.53814 0.00721478
63 1 3.97655 8.14083 0.00532837 -3.54561 0.0216292
64 1 3.59547 9.94587 1.81283 -3.54333 0.049768
65 1 6.11733 6.72478 -3.60967 -3.54067 0.00231743
66 1 5.73826 8.50128 -1.80217 -3.54412 0.00947404
67 1 5.38323 10.2713 0.00532879 -3.54283 0.00583772
68 1 5.05828 12.0309 1.81283 -3.53461 0.00877165
69 1 7.5235 8.85295 -3.60967 -3.54076 0.00156667
70 1 7.17725 10.6146 -1.80217 -3.53921 0.00115243
71 1 6.8371 12.3815 0.00532893 -3.53843 0.00322943
72 1 6.48648 14.157 1.81283 -3.53822 0.00194448
73 1 8.95911 10.9699 -3.60967 -3.53912 0.000703127
74 1 8.60708 12.7407 -1.80217 -3.53979 0.000578892
75 1 8.24839 14.5179 0.00532898 -3.54078 0.000384262
76 1 7.88609 16.2948 1.81283 -3.54136 0.00207357
77 1 10.377 13.0998 -3.60967 -3.54049 7.65024e-05
78 1 10.019 14.8731 -1.80217 -3.54107 0.000479871
79 1 9.66474 16.6441 0.00532912 -3.54074 0.000535367
80 1 9.31791 18.4108 1.81283 -3.53962 0.000212245
81 1 11.7958 15.2258 -3.60967 -3.54059 0.000158182
82 1 11.4454 16.9942 -1.80217 -3.54013 5.87165e-05
83 1 13.2237 17.347 -3.60967 -3.53996 5.70794e-05
84 1 1.07328 -5.41619 -3.60967 -3.4973 0.339384
85 1 0.878952 -3.67047 -1.80217 -3.52579 0.331446
86 1 0.596505 -1.76389 0.00532785 -3.49189 2.28801
87 1 0.249002 0.0160736 1.81283 -3.31439 6.28485
88 1 2.61835 -3.26643 -3.60967 -3.54377 0.0744452
89 1 2.29469 -1.46566 -1.80217 -3.52897 0.0468439
90 1 1.90427 0.395521 0.00532828 -3.48712 0.408575
91 1 1.43122 2.14593 1.81283 -3.47218 0.438804
92 1 4.01212 -1.08253 -3.60967 -3.54619 0.0145147
93 1 3.63733 0.712854 -1.80217 -3.54283 0.0282039
94 1 3.28065 2.4798 0.00532841 -3.52344 0.0407853
95 1 2.94943 4.19091 1.81283 -3.51829 0.0545213
96 1 5.41708 1.05108 -3.60967 -3.5427 0.00299253
97 1 5.08024 2.81281 -1.80217 -3.53592 0.00588094
98 1 4.7321 4.5758 0.00532874 -3.53364 0.0111817
99 1 4.36252 6.34162 1.81283 -3.53814 0.00721478
100 1 6.85309 3.17008 -3.60967 -3.53894 0.0021146
101 1 6.4937 4.94511 -1.80217 -3.53854 0.00148839
102 1 6.11733 6.72478 0.00532879 -3.54067 0.00231743
103 1 5.73826 8.50128 1.81283 -3.54412 0.00947404
104 1 8.25402 5.30947 -3.60967 -3.54077 0.000450179
105 1 7.88527 7.08506 -1.80217 -3.54125 0.00204689
106 1 7.5235 8.85295 0.00532893 -3.54076 0.00156667
107 1 7.17725 10.6146 1.81283 -3.53921 0.00115243
108 1 9.6624 7.43788 -3.60967 -3.54062 0.000508557
109 1 9.30878 9.20415 -1.80217 -3.53953 0.000163126
110 1 8.95911 10.9699 0.00532907 -3.53912 0.000703127
111 1 8.60708 12.7407 1.81283 -3.53979 0.000578892
112 1 11.0878 9.55836 -3.60967 -3.53962 0.000119771
113 1 10.7339 11.3277 -1.80217 -3.53976 0.000136264
114 1 10.377 13.0998 0.00532918 -3.54049 7.65024e-05
115 1 10.019 14.8731 1.81283 -3.54107 0.000479871
116 1 12.507 11.6846 -3.60967 -3.54023 1.1897e-05
117 1 12.1505 13.4557 -1.80217 -3.54057 0.000105997
118 1 11.7958 15.2258 0.00532957 -3.54059 0.000158182
119 1 11.4454 16.9942 1.81283 -3.54013 5.87165e-05
120 1 13.9264 13.8096 -3.60967 -3.54038 4.53786e-05
121 1 13.5739 15.5785 -1.80217 -3.54021 2.04729e-05
122 1 13.2237 17.347 0.00532977 -3.53996 5.70794e-05
123 1 15.3509 15.9322 -3.60967 -3.54008 1.61498e-05
124 1 14.9995 17.7016 -1.80217 -3.54003 4.24259e-05
125 1 16.7737 18.057 -3.60967 -3.54013 1.77462e-05
126 1 0.661534 -10.9287 -3.60967 -3.4518 3.42752
127 1 0.331163 -9.13481 -1.80217 -3.29555 8.79441
128 1 1.9586 -8.77997 -3.60967 -3.47287 0.548318
129 1 1.47302 -7.02855 -1.80217 -3.45224 0.568377
130 1 1.07328 -5.41619 0.00532812 -3.4973 0.339373
131 1 0.878952 -3.67047 1.81283 -3.52558 0.331446
132 1 3.31761 -6.70686 -3.60967 -3.52187 0.0651154
133 1 2.97783 -5.00075 -1.80217 -3.51578 0.0572655
134 1 2.61835 -3.26643 0.00532823 -3.54377 0.0744452
135 1 2.29469 -1.46566 1.81283 -3.52901 0.0468439
136 1 4.76358 -4.62358 -3.60967 -3.53302 0.0139237
137 1 4.39374 -2.86619 -1.80217 -3.5379 0.00541223
138 1 4.01212 -1.08253 0.0053286 -3.54619 0.0145147
139 1 3.63733 0.712854 1.81283 -3.54284 0.0282039
140 1 6.15378 -2.48748 -3.60967 -3.53974 0.00176342
141 1 5.77666 -0.716223 -1.80217 -3.54318 0.00441591
142 1 5.41708 1.05108 0.00532879 -3.5427 0.00299253
143 1 5.08024 2.81281 1.81283 -3.53592 0.00588094
144 1 7.5562 -0.360638 -3.60967 -3.54039 0.000785996
145 1 7.20293 1.4025 -1.80217 -3.53946 0.000664904
146 1 6.85309 3.17008 0.00532893 -3.53894 0.0021146
147 1 6.4937 4.94511 1.81283 -3.53854 0.00148839
148 1 8.97846 1.76085 -3.60967 -3.53924 0.00048907
149 1 8.61948 3.5328 -1.80217 -3.53986 0.00034207
150 1 8.25402 5.30947 0.00532898 -3.54077 0.000450179
151 1 7.88527 7.08506 1.81283 -3.54125 0.00204689
152 1 10.3861 3.89329 -3.60967 -3.54041 0.0001026
153 1 10.0227 5.66712 -1.80217 -3.54095 0.000499411
154 1 9.6624 7.43788 0.00532912 -3.54062 0.000508557
155 1 9.30878 9.20415 1.81283 -3.53953 0.000163126
156 1 11.7969 6.02111 -3.60967 -3.54049 0.000174004
157 1 11.441 7.79028 -1.80217 -3.54006 4.70425e-05
158 1 11.0878 9.55836 0.00532949 -3.53962 0.000119771
159 1 10.7339 11.3277 1.81283 -3.53976 0.000136264
160 1 13.2175 8.14389 -3.60967 -3.53996 2.01784e-05
161 1 12.8629 9.9138 -1.80217 -3.53996 2.91644e-05
162 1 12.507 11.6846 0.00532965 -3.54023 1.1897e-05
163 1 12.1505 13.4557 1.81283 -3.54057 0.000105997
164 1 14.6367 10.2688 -3.60967 -3.54019 4.41643e-06
165 1 14.2812 12.0396 -1.80217 -3.54035 2.62154e-05
166 1 13.9264 13.8096 0.00532982 -3.54038 4.53786e-05
167 1 13.5739 15.5785 1.81283 -3.54021 2.04729e-05
168 1 16.0563 12.3934 -3.60967 -3.54029 1.51948e-05
169 1 15.7029 14.163 -1.80217 -3.54021 8.52361e-06
170 1 15.3509 15.9322 0.00533008 -3.54008 1.61498e-05
171 1 14.9995 17.7016 1.81283 -3.54003 4.24259e-05
172 1 17.4786 14.5167 -3.60967 -3.54014 6.31748e-06
173 1 17.1262 16.2866 -1.80217 -3.5401 1.59085e-05
174 1 16.7737 18.057 0.00533033 -3.54013 1.77462e-05
175 1 18.9003 16.6414 -3.60967 -3.54015 9.40456e-06
176 1 18.547 18.4124 -1.80217 -3.54019 6.51311e-06
177 1 1.02103 -14.6097 -3.60967 -3.47969 0.484458
178 1 0.897278 -12.8655 -1.80217 -3.51101 0.548843
179 1 0.661534 -10.9287 0.00532785 -3.4518 3.42752
180 1 0.331163 -9.13481 1.81283 -3.29552 8.79441
181 1 2.63061 -12.4825 -3.60967 -3.54306 0.123525
182 1 2.33548 -10.6661 -1.80217 -3.52709 0.0736276
183 1 1.9586 -8.77997 0.00532828 -3.47287 0.548312
184 1 1.47302 -7.02855 1.81283 -3.45252 0.568377
185 1 4.03671 -10.2963 -3.60967 -3.54657 0.0210644
186 1 3.67198 -8.48506 -1.80217 -3.54314 0.0339231
187 1 3.31761 -6.70686 0.00532841 -3.52187 0.0651154
188 1 2.97783 -5.00075 1.81283 -3.51581 0.0572655
189 1 5.44067 -8.15987 -3.60967 -3.54388 0.00415533
190 1 5.10957 -6.389 -1.80217 -3.53657 0.0064372
191 1 4.76358 -4.62358 0.00532874 -3.53302 0.0139237
192 1 4.39374 -2.86619 1.81283 -3.5379 0.00541223
193 1 6.87775 -6.04315 -3.60967 -3.53937 0.00180866
194 1 6.52482 -4.26502 -1.80217 -3.53839 0.00203036
195 1 6.15378 -2.48748 0.00532879 -3.53974 0.00176342
196 1 5.77666 -0.716223 1.81283 -3.54318 0.00441591
197 1 8.28294 -3.90814 -3.60967 -3.54059 0.000236076
198 1 7.91878 -2.13027 -1.80217 -3.54073 0.0011382
199 1 7.5562 -0.360638 0.00532893 -3.54039 0.000785996
200 1 7.20293 1.4025 1.81283 -3.53946 0.000664904
201 1 9.68921 -1.77882 -3.60967 -3.54053 0.000225854
202 1 9.33364 -0.00806465 -1.80217 -3.53957 0.000179131
203 1 8.97846 1.76085 0.00532907 -3.53924 0.00048907
204 1 8.61948 3.5328 1.81283 -3.53986 0.00034207
205 1 11.1056 0.346051 -3.60967 -3.53973 0.000107214
206 1 10.7479 2.1192 -1.80217 -3.53978 0.000111506
207 1 10.3861 3.89329 0.00532941 -3.54041 0.0001026
208 1 10.0227 5.66712 1.81283 -3.54095 0.000499411
209 1 12.5162 2.47559 -3.60967 -3.54023 3.73455e-05
210 1 12.156 4.24941 -1.80217 -3.54049 0.00014615
211 1 11.7969 6.02111 0.00532957 -3.54049 0.000174004
212 1 11.441 7.79028 1.81283 -3.54006 4.70425e-05
213 1 13.9285 4.60295 -3.60967 -3.54035 6.894e-05
214 1 13.5723 6.37405 -1.80217 -3.54017 2.92839e-05
215 1 13.2175 8.14389 0.00532977 -3.53996 2.01784e-05
216 1 12.8629 9.9138 1.81283 -3.53996 2.91644e-05
217 1 15.3468 6.72711 -3.60967 -3.5401 7.24065e-06
218 1 14.992 8.49798 -1.80217 -3.54007 7.41078e-06
219 1 14.6367 10.2688 0.00532996 -3.54019 4.41643e-06
220 1 14.2812 12.0396 1.81283 -3.54035 2.62154e-05
221 1 16.7657 8.85182 -3.60967 -3.54018 3.28249e-06
222 1 16.4108 10.6229 -1.80217 -3.54027 9.13855e-06
223 1 16.0563 12.3934 0.00533017 -3.54029 1.51948e-05
224 1 15.7029 14.163 1.81283 -3.54021 8.52361e-06
225 1 18.1852 10.9764 -3.60967 -3.54025 6.25634e-06
226 1 17.8315 12.7468 -1.80217 -3.54021 4.65602e-06
227 1 17.4786 14.5167 0.00533044 -3.54014 6.31748e-06
228 1 17.1262 16.2866 1.81283 -3.5401 1.59085e-05
229 1 19.6062 13.1003 -3.60967 -3.54018 3.25492e-06
230 1 19.2533 14.8708 -1.80217 -3.54014 7.1136e-06
231 1 18.9003 16.6414 0.00533074 -3.54015 9.40456e-06
232 1 18.547 18.4124 1.81283 -3.54019 6.51311e-06
233 1 21.027 15.2252 -3.60967 -3.54017 5.26238e-06
234 1 20.6736 16.9964 -1.80217 -3.54018 4.86905e-06
235 1 22.4464 17.3513 -3.60967 -3.5402 2.79233e-06
236 1 1.89851 -17.9663 -3.60967 -3.45749 0.671747
237 1 1.39129 -16.2088 -1.80217 -3.4334 0.72623
238 1 1.02103 -14.6097 0.00532812 -3.47969 0.484458
239 1 0.897278 -12.8655 1.81283 -3.51101 0.548843
240 1 3.27068 -15.9112 -3.60967 -3.5176 0.0769851
241 1 2.96047 -14.2184 -1.80217 -3.50849 0.0856856
242 1 2.63061 -12.4825 0.00532823 -3.54306 0.123525
243 1 2.33548 -10.6661 1.81283 -3.5271 0.0736276
244 1 4.7571 -13.8493 -3.60967 -3.53161 0.0188744
245 1 4.40451 -12.0912 -1.80217 -3.53761 0.0109134
246 1 4.03671 -10.2963 0.0053286 -3.54657 0.0210644
247 1 3.67198 -8.48506 1.81283 -3.54315 0.0339231
248 1 6.16178 -11.7148 -3.60967 -3.53988 0.00110027
249 1 5.79276 -9.93708 -1.80217 -3.54403 0.00519088
250 1 5.44067 -8.15987 0.00532879 -3.54388 0.00415533
251 1 5.10957 -6.389 1.81283 -3.53657 0.0064372
252 1 7.56806 -9.58527 -3.60967 -3.54083 0.000689313
253 1 7.22093 -7.81654 -1.80217 -3.54011 0.000709987
254 1 6.87775 -6.04315 0.00532893 -3.53937 0.00180866
255 1 6.52482 -4.26502 1.81283 -3.53839 0.00203036
256 1 8.99402 -7.4632 -3.60967 -3.5395 0.00041711
257 1 8.64159 -5.68785 -1.80217 -3.54004 0.000396046
258 1 8.28294 -3.90814 0.00532898 -3.54059 0.000236076
259 1 7.91878 -2.13027 1.81283 -3.54073 0.0011382
260 1 10.4059 -5.33114 -3.60967 -3.5404 4.09133e-05
261 1 10.0473 -3.55391 -1.80217 -3.54086 0.000172905
262 1 9.68921 -1.77882 0.00532912 -3.54053 0.000225854
263 1 9.33364 -0.00806465 1.81283 -3.53957 0.000179131
264 1 11.8162 -3.20078 -3.60967 -3.54049 4.40081e-05
265 1 11.4608 -1.42689 -1.80217 -3.54015 1.6084e-05
266 1 11.1056 0.346051 0.00532949 -3.53973 0.000107214
267 1 10.7479 2.1192 1.81283 -3.53978 0.000111506
268 1 13.2312 -1.07332 -3.60967 -3.54007 1.25589e-05
269 1 12.8748 0.701017 -1.80217 -3.54004 2.30706e-05
270 1 12.5162 2.47559 0.00532965 -3.54023 3.73455e-05
271 1 12.156 4.24941 1.81283 -3.54049 0.00014615
272 1 14.6439 1.05567 -3.60967 -3.54025 9.6232e-06
273 1 14.2862 2.82997 -1.80217 -3.54036 4.60827e-05
274 1 13.9285 4.60295 0.00532982 -3.54035 6.894e-05
275 1 13.5723 6.37405 1.81283 -3.54017 2.92839e-05
276 1 16.0577 3.18322 -3.60967 -3.54032 2.60327e-05
277 1 15.7019 4.95571 -1.80217 -3.54022 1.68189e-05
278 1 15.3468 6.72711 0.00533008 -3.5401 7.24065e-06
279 1 14.992 8.49798 1.81283 -3.54007 7.41078e-06
280 1 17.4752 5.30853 -3.60967 -3.54018 3.57936e-06
281 1 17.1205 7.08036 -1.80217 -3.54014 2.6876e-06
282 1 16.7657 8.85182 0.00533033 -3.54018 3.28249e-06
283 1 16.4108 10.6229 1.81283 -3.54027 9.13855e-06
284 1 18.8938 7.4336 -3.60967 -3.5402 1.69652e-06
285 1 18.5394 9.20525 -1.80217 -3.54024 4.00661e-06
286 1 18.1852 10.9764 0.0053306 -3.54025 6.25634e-06
287 1 17.8315 12.7468 1.81283 -3.54021 4.65602e-06
288 1 20.3131 9.55844 -3.60967 -3.54024 2.55063e-06
289 1 19.9595 11.3296 -1.80217 -3.54022 2.4588e-06
290 1 19.6062 13.1003 0.0053311 -3.54018 3.25492e-06
291 1 19.2533 14.8708 1.81283 -3.54014 7.1136e-06
292 1 21.7334 11.683 -3.60967 -3.5402 1.55536e-06
293 1 21.3802 13.4541 -1.80217 -3.54017 3.45607e-06
294 1 21.027 15.2252 0.00533138 -3.54017 5.26238e-06
295 1 20.6736 16.9964 1.81283 -3.54018 4.86905e-06
296 1 23.1536 13.8081 -3.60967 -3.54019 2.84431e-06
297 1 22.8001 15.5797 -1.80217 -3.54019 3.29023e-06
298 1 22.4464 17.3513 0.0053316 -3.5402 2.79233e-06
299 1 24.5728 15.9342 -3.60967 -3.5402 2.04316e-06
300 1 24.2188 17.7062 -1.80217 -3.5402 1.79808e-06
301 1 25.9909 18.061 -3.60967 -3.54021 1.17486e-06
302 1 1.89851 -17.9663 0.00532828 -3.45749 0.671747
303 1 1.39129 -16.2088 1.81283 -3.4334 0.72623
304 1 3.61631 -17.6835 -1.80217 -3.54331 0.0580522
305 1 3.27068 -15.9112 0.00532841 -3.5176 0.0769851
306 1 2.96047 -14.2184 1.81283 -3.50849 0.0856856
307 1 5.39936 -17.3719 -3.60967 -3.54372 0.00768595
308 1 5.08398 -15.6086 -1.80217 -3.53494 0.00937364
309 1 4.7571 -13.8493 0.00532874 -3.53161 0.0188744
310 1 4.40451 -12.0912 1.81283 -3.53761 0.0109134
311 1 6.86321 -15.2698 -3.60967 -3.53861 0.00377041
312 1 6.52288 -13.4942 -1.80217 -3.53784 0.00323828
313 1 6.16178 -11.7148 0.00532879 -3.53988 0.00110027
314 1 5.79276 -9.93708 1.81283 -3.54403 0.00519088
315 1 8.28251 -13.1383 -3.60967 -3.54047 0.000233328
316 1 7.92487 -11.3588 -1.80217 -3.54087 0.000733414
317 1 7.56806 -9.58527 0.00532893 -3.54083 0.000689313
318 1 7.22093 -7.81654 1.81283 -3.54011 0.000709987
319 1 9.69443 -11.008 -3.60967 -3.54065 0.000150292
320 1 9.34367 -9.23513 -1.80217 -3.53977 7.4947e-05
321 1 8.99402 -7.4632 0.00532907 -3.5395 0.00041711
322 1 8.64159 -5.68785 1.81283 -3.54004 0.000396046
323 1 11.1151 -8.88243 -3.60967 -3.53982 8.96048e-05
324 1 10.7622 -7.10764 -1.80217 -3.53985 0.000113505
325 1 10.4059 -5.33114 0.00532941 -3.5404 4.09133e-05
326 1 10.0473 -3.55391 1.81283 -3.54086 0.000172905
327 1 12.5294 -6.75213 -3.60967 -3.54021 1.34946e-05
328 1 12.1729 -4.97608 -1.80217 -3.54045 3.07441e-05
329 1 11.8162 -3.20078 0.00532957 -3.54049 4.40081e-05
330 1 11.4608 -1.42689 1.81283 -3.54015 1.6084e-05
331 1 13.9419 -4.62199 -3.60967 -3.54033 1.1089e-05
332 1 13.5864 -2.84745 -1.80217 -3.54022 1.96174e-06
333 1 13.2312 -1.07332 0.00532977 -3.54007 1.25589e-05
334 1 12.8748 0.701017 1.81283 -3.54004 2.30706e-05
335 1 15.3566 -2.49349 -3.60967 -3.54015 1.3987e-06
336 1 15.0008 -0.718987 -1.80217 -3.54015 3.50247e-06
337 1 14.6439 1.05567 0.00532996 -3.54025 9.6232e-06
338 1 14.2862 2.82997 1.81283 -3.54036 4.60827e-05
339 1 16.7706 -0.36469 -3.60967 -3.54023 3.78273e-06
340 1 16.4142 1.40961 -1.80217 -3.54031 1.54477e-05
341 1 16.0577 3.18322 0.00533017 -3.54032 2.60327e-05
342 1 15.7019 4.95571 1.81283 -3.54022 1.68189e-05
343 1 18.1855 1.76304 -3.60967 -3.54028 1.10214e-05
344 1 17.8301 3.53615 -1.80217 -3.54025 8.64209e-06
345 1 17.4752 5.30853 0.00533044 -3.54018 3.57936e-06
346 1 17.1205 7.08036 1.81283 -3.54014 2.6876e-06
347 1 19.6027 3.88916 -3.60967 -3.54022 2.56116e-06
348 1 19.2482 5.66156 -1.80217 -3.54019 1.22205e-06
349 1 18.8938 7.4336 0.00533097 -3.5402 1.69652e-06
350 1 18.5394 9.20525 1.81283 -3.54024 4.00661e-06
351 1 21.0212 6.01472 -3.60967 -3.54022 9.47057e-07
352 1 20.6671 7.78678 -1.80217 -3.54023 1.65563e-06
353 1 20.3131 9.55844 0.00533126 -3.54024 2.55063e-06
354 1 19.9595 11.3296 1.81283 -3.54022 2.4588e-06
355 1 22.4404 8.13998 -3.60967 -3.54023 9.94676e-07
356 1 22.0868 9.91166 -1.80217 -3.54022 1.02397e-06
357 1 21.7334 11.683 0.00533152 -3.5402 1.55536e-06
358 1 21.3802 13.4541 1.81283 -3.54017 3.45607e-06
359 1 23.8603 10.2651 -3.60967 -3.54021 6.40891e-07
360 1 23.507 12.0366 -1.80217 -3.54019 1.60125e-06
361 1 23.1536 13.8081 0.00533175 -3.54019 2.84431e-06
362 1 22.8001 15.5797 1.81283 -3.54019 3.29023e-06
363 1 25.2801 12.3905 -3.60967 -3.5402 1.47846e-06
364 1 24.9265 14.1624 -1.80217 -3.5402 2.00686e-06
365 1 24.5728 15.9342 0.00533197 -3.5402 2.04316e-06
366 1 24.2188 17.7062 1.81283 -3.5402 1.79808e-06
367 1 26.6991 14.5167 -3.60967 -3.54021 1.3499e-06
368 1 26.3451 16.2888 -1.80217 -3.54021 1.29603e-06
369 1 25.9909 18.061 0.00533225 -3.54021 1.17486e-06
370 1 28.1173 16.6435 -3.60967 -3.54021 8.0672e-07
371 1 27.7629 18.4159 -1.80217 -3.54021 7.2933e-07
372 1 3.61631 -17.6835 1.81283 -3.54331 0.0580522
373 1 5.39936 -17.3719 0.00532879 -3.54372 0.00768595
374 1 5.08398 -15.6086 1.81283 -3.53494 0.00937364
375 1 7.19326 -17.0381 -1.80217 -3.53963 0.00148707
376 1 6.86321 -15.2698 0.00532893 -3.53861 0.00377041
377 1 6.52288 -13.4942 1.81283 -3.53784 0.00323828
378 1 8.97619 -16.6889 -3.60967 -3.53916 0.00100438
379 1 8.633 -14.9171 -1.80217 -3.53972 0.00112181
380 1 8.28251 -13.1383 0.00532898 -3.54047 0.000233328
381 1 7.92487 -11.3588 1.81283 -3.54087 0.000733414
382 1 10.4009 -14.5606 -3.60967 -3.54033 0.000149168
383 1 10.0477 -12.7841 -1.80217 -3.54089 0.000111087
384 1 9.69443 -11.008 0.00532912 -3.54065 0.000150292
385 1 9.34367 -9.23513 1.81283 -3.53977 7.4947e-05
386 1 11.8176 -12.4303 -3.60967 -3.54057 3.5779e-05
387 1 11.466 -10.6563 -1.80217 -3.54025 1.53559e-05
388 1 11.1151 -8.88243 0.00532949 -3.53982 8.96048e-05
389 1 10.7622 -7.10764 1.81283 -3.53985 0.000113505
390 1 13.237 -10.3024 -3.60967 -3.54012 2.88246e-05
391 1 12.8841 -8.52782 -1.80217 -3.54006 3.88074e-05
392 1 12.5294 -6.75213 0.00532965 -3.54021 1.34946e-05
393 1 12.1729 -4.97608 1.81283 -3.54045 3.07441e-05
394 1 14.6529 -8.17249 -3.60967 -3.54023 9.73996e-06
395 1 14.2976 -6.39719 -1.80217 -3.54032 7.51095e-06
396 1 13.9419 -4.62199 0.00532982 -3.54033 1.1089e-05
397 1 13.5864 -2.84745 1.81283 -3.54022 1.96174e-06
398 1 16.0671 -6.04248 -3.60967 -3.5403 4.40786e-06
399 1 15.7118 -4.26792 -1.80217 -3.54024 1.5058e-06
400 1 15.3566 -2.49349 0.00533008 -3.54015 1.3987e-06
401 1 15.0008 -0.718987 1.81283 -3.54015 3.50247e-06
402 1 17.4821 -3.9135 -3.60967 -3.5402 1.10641e-06
403 1 17.1266 -2.13915 -1.80217 -3.54019 1.18984e-06
404 1 16.7706 -0.36469 0.00533033 -3.54023 3.78273e-06
405 1 16.4142 1.40961 1.81283 -3.54031 1.54477e-05
406 1 18.897 -1.78476 -3.60967 -3.54024 2.51948e-06
407 1 18.5412 -0.0106921 -1.80217 -3.54027 6.68353e-06
408 1 18.1855 1.76304 0.0053306 -3.54028 1.10214e-05
409 1 17.8301 3.53615 1.81283 -3.54025 8.64209e-06
410 1 20.3127 0.343089 -3.60967 -3.54026 5.61993e-06
411 1 19.9575 2.11634 -1.80217 -3.54025 5.07952e-06
412 1 19.6027 3.88916 0.0053311 -3.54022 2.56116e-06
413 1 19.2482 5.66156 1.81283 -3.54019 1.22205e-06
414 1 21.7299 2.46971 -3.60967 -3.54023 2.20557e-06
415 1 21.3755 4.24235 -1.80217 -3.54022 1.1367e-06
416 1 21.0212 6.01472 0.00533138 -3.54022 9.47057e-07
417 1 20.6671 7.78678 1.81283 -3.54023 1.65563e-06
418 1 23.1483 4.5957 -3.60967 -3.54022 8.19205e-07
419 1 22.7943 6.36797 -1.80217 -3.54023 8.32425e-07
420 1 22.4404 8.13998 0.0053316 -3.54023 9.94676e-07
421 1 22.0868 9.91166 1.81283 -3.54022 1.02397e-06
422 1 24.5674 6.72135 -3.60967 -3.54023 4.99675e-07
423 1 24.2137 8.49331 -1.80217 -3.54022 4.15075e-07
424 1 23.8603 10.2651 0.00533187 -3.54021 6.40891e-07
425 1 23.507 12.0366 1.81283 -3.54019 1.60125e-06
426 1 25.9869 8.84686 -3.60967 -3.54022 2.92945e-07
427 1 25.6335 10.6187 -1.80217 -3.54021 7.38303e-07
428 1 25.2801 12.3905 0.00533214 -3.5402 1.47846e-06
429 1 24.9265 14.1624 1.81283 -3.5402 2.00686e-06
430 1 27.4064 10.9726 -3.60967 -3.54021 8.06926e-07
431 1 27.0528 12.7446 -1.80217 -3.54021 1.20055e-06
432 1 26.6991 14.5167 0.0053324 -3.54021 1.3499e-06
433 1 26.3451 16.2888 1.81283 -3.54021 1.29603e-06
434 1 28.8253 13.0989 -3.60967 -3.54021 8.97537e-07
435 1 28.4714 14.8712 -1.80217 -3.54021 8.7394e-07
436 1 28.1173 16.6435 0.00533265 -3.54021 8.0672e-07
437 1 27.7629 18.4159 1.81283 -3.54021 7.2933e-07
438 1 30.2435 15.2257 -3.60967 -3.54021 5.26108e-07
439 1 29.8893 16.9982 -1.80217 -3.54021 4.93672e-07
440 1 31.6612 17.3528 -3.60967 -3.54022 3.36356e-07
441 1 7.19326 -17.0381 1.81283 -3.53963 0.00148707
442 1 8.97619 -16.6889 0.00532907 -3.53916 0.00100438
443 1 8.633 -14.9171 1.81283 -3.53972 0.00112181
444 1 11.0984 -18.1038 -3.60967 -3.53961 0.000222366
445 1 10.7513 -16.3341 -1.80217 -3.53966 0.000367041
446 1 10.4009 -14.5606 0.00532918 -3.54033 0.000149168
447 1 10.0477 -12.7841 1.81283 -3.54089 0.000111087
448 1 12.5233 -15.9779 -3.60967 -3.54011 6.76048e-05
449 1 12.1706 -14.2045 -1.80217 -3.54045 2.18195e-05
450 1 11.8176 -12.4303 0.00532957 -3.54057 3.5779e-05
451 1 11.466 -10.6563 1.81283 -3.54025 1.53559e-05
452 1 13.9419 -13.8491 -3.60967 -3.54035 6.14403e-06
453 1 13.5892 -12.076 -1.80217 -3.54027 9.40189e-06
454 1 13.237 -10.3024 0.00532977 -3.54012 2.88246e-05
455 1 12.8841 -8.52782 1.81283 -3.54006 3.88074e-05
456 1 15.3607 -11.7208 -3.60967 -3.54017 1.12347e-05
457 1 15.0072 -9.94714 -1.80217 -3.54016 1.74402e-05
458 1 14.6529 -8.17249 0.00532996 -3.54023 9.73996e-06
459 1 14.2976 -6.39719 1.81283 -3.54032 7.51095e-06
460 1 16.7773 -9.5914 -3.60967 -3.54022 6.06566e-06
461 1 16.4224 -7.8171 -1.80217 -3.54028 4.30269e-06
462 1 16.0671 -6.04248 0.00533017 -3.5403 4.40786e-06
463 1 15.7118 -4.26792 1.81283 -3.54024 1.5058e-06
464 1 18.1926 -7.46179 -3.60967 -3.54026 2.48672e-06
465 1 17.8373 -5.68771 -1.80217 -3.54025 1.96918e-06
466 1 17.4821 -3.9135 0.00533044 -3.5402 1.10641e-06
467 1 17.1266 -2.13915 1.81283 -3.54019 1.18984e-06
468 1 19.608 -5.33279 -3.60967 -3.54022 1.32321e-06
469 1 19.2526 -3.55885 -1.80217 -3.54022 1.38842e-06
470 1 18.897 -1.78476 0.00533097 -3.54024 2.51948e-06
471 1 18.5412 -0.0106921 1.81283 -3.54027 6.68353e-06
472 1 21.0235 -3.20418 -3.60967 -3.54023 1.94192e-06
473 1 20.6681 -1.43049 -1.80217 -3.54025 3.7255e-06
474 1 20.3127 0.343089 0.00533126 -3.54026 5.61993e-06
475 1 19.9575 2.11634 1.81283 -3.54025 5.07952e-06
476 1 22.4397 -1.07633 -3.60967 -3.54025 3.29529e-06
477 1 22.0846 0.696811 -1.80217 -3.54025 3.33362e-06
478 1 21.7299 2.46971 0.00533152 -3.54023 2.20557e-06
479 1 21.3755 4.24235 1.81283 -3.54022 1.1367e-06
480 1 23.857 1.05058 -3.60967 -3.54023 1.82765e-06
481 1 23.5025 2.82322 -1.80217 -3.54023 1.18938e-06
482 1 23.1483 4.5957 0.00533175 -3.54022 8.19205e-07
483 1 22.7943 6.36797 1.81283 -3.54023 8.32425e-07
484 1 25.2753 3.17686 -3.60967 -3.54023 7.65229e-07
485 1 24.9212 4.94918 -1.80217 -3.54023 6.00265e-07
486 1 24.5674 6.72135 0.00533197 -3.54023 4.99675e-07
487 1 24.2137 8.49331 1.81283 -3.54022 4.15075e-07
488 1 26.6942 5.30281 -3.60967 -3.54023 3.53395e-07
489 1 26.3405 7.0749 -1.80217 -3.54022 2.44099e-07
490 1 25.9869 8.84686 0.00533225 -3.54022 2.92945e-07
491 1 25.6335 10.6187 1.81283 -3.54021 7.38303e-07
492 1 28.1135 7.42864 -3.60967 -3.54022 1.82325e-07
493 1 27.7599 9.20065 -1.80217 -3.54021 3.85026e-07
494 1 27.4064 10.9726 0.00533252 -3.54021 8.06926e-07
495 1 27.0528 12.7446 1.81283 -3.54021 1.20055e-06
496 1 29.5328 9.55465 -3.60967 -3.54021 4.88328e-07
497 1 29.1791 11.3268 -1.80217 -3.54021 7.72509e-07
498 1 28.8253 13.0989 0.00533276 -3.54021 8.97537e-07
499 1 28.4714 14.8712 1.81283 -3.54021 8.7394e-07
500 1 30.9516 11.681 -3.60967 -3.54021 6.48671e-07
501 1 30.5976 13.4533 -1.80217 -3.54021 5.93707e-07
502 1 30.2435 15.2257 0.00533301 -3.54021 5.26108e-07
503 1 29.8893 16.9982 1.81283 -3.54021 4.93672e-07
504 1 32.3698 13.8079 -3.60967 -3.54021 3.16715e-07
505 1 32.0156 15.5803 -1.80217 -3.54021 3.1616e-07
506 1 31.6612 17.3528 0.00533319 -3.54022 3.36356e-07
507 1 33.7876 15.9349 -3.60967 -3.54022 2.71867e-07
508 1 33.4331 17.7075 -1.80217 -3.54022 2.82623e-07
509 1 35.205 18.0622 -3.60967 -3.54023 2.21528e-07
510 1 11.0984 -18.1038 0.00532949 -3.53961 0.000222366
511 1 10.7513 -16.3341 1.81283 -3.53966 0.000367041
512 1 12.8742 -17.7494 -1.80217 -3.5399 0.000122076
513 1 12.5233 -15.9779 0.00532965 -3.54011 6.76048e-05
514 1 12.1706 -14.2045 1.81283 -3.54045 2.18195e-05
515 1 14.6478 -17.3937 -3.60967 -3.54012 3.54991e-05
516 1 14.2951 -15.6218 -1.80217 -3.54028 9.83107e-06
517 1 13.9419 -13.8491 0.00532982 -3.54035 6.14403e-06
518 1 13.5892 -12.076 1.81283 -3.54027 9.40189e-06
519 1 16.0673 -15.266 -3.60967 -3.54027 2.92008e-06
520 1 15.7139 -13.4936 -1.80217 -3.54024 3.93648e-06
521 1 15.3607 -11.7208 0.00533008 -3.54017 1.12347e-05
522 1 15.0072 -9.94714 1.81283 -3.54016 1.74402e-05
523 1 17.4857 -13.1379 -3.60967 -3.5402 4.84372e-06
524 1 17.1317 -11.365 -1.80217 -3.54018 7.40331e-06
525 1 16.7773 -9.5914 0.00533033 -3.54022 6.06566e-06
526 1 16.4224 -7.8171 1.81283 -3.54028 4.30269e-06
527 1 18.9027 -11.0091 -3.60967 -3.54021 2.98495e-06
528 1 18.5478 -9.23565 -1.80217 -3.54024 2.29926e-06
529 1 18.1926 -7.46179 0.0053306 -3.54026 2.48672e-06
530 1 17.8373 -5.68771 1.81283 -3.54025 1.96918e-06
531 1 20.3186 -8.88003 -3.60967 -3.54024 1.1155e-06
532 1 19.9633 -7.10652 -1.80217 -3.54024 1.34037e-06
533 1 19.608 -5.33279 0.0053311 -3.54022 1.32321e-06
534 1 19.2526 -3.55885 1.81283 -3.54022 1.38842e-06
535 1 21.7344 -6.75128 -3.60967 -3.54022 8.3719e-07
536 1 21.379 -4.97782 -1.80217 -3.54022 1.16778e-06
537 1 21.0235 -3.20418 0.00533138 -3.54023 1.94192e-06
538 1 20.6681 -1.43049 1.81283 -3.54025 3.7255e-06
539 1 23.1503 -4.62291 -3.60967 -3.54023 1.26075e-06
540 1 22.7949 -2.84961 -1.80217 -3.54024 2.25698e-06
541 1 22.4397 -1.07633 0.0053316 -3.54025 3.29529e-06
542 1 22.0846 0.696811 1.81283 -3.54025 3.33362e-06
543 1 24.5668 -2.49516 -3.60967 -3.54024 1.97135e-06
544 1 24.2117 -0.722229 -1.80217 -3.54024 2.22575e-06
545 1 23.857 1.05058 0.00533187 -3.54023 1.82765e-06
546 1 23.5025 2.82322 1.81283 -3.54023 1.18938e-06
547 1 25.9841 -0.368144 -3.60967 -3.54023 1.36269e-06
548 1 25.6296 1.40441 -1.80217 -3.54023 1.05673e-06
549 1 25.2753 3.17686 0.00533214 -3.54023 7.65229e-07
550 1 24.9212 4.94918 1.81283 -3.54023 6.00265e-07
551 1 27.4023 1.75832 -3.60967 -3.54023 6.2091e-07
552 1 27.0482 3.53061 -1.80217 -3.54023 4.73773e-07
553 1 26.6942 5.30281 0.0053324 -3.54023 3.53395e-07
554 1 26.3405 7.0749 1.81283 -3.54022 2.44099e-07
555 1 28.8211 3.88447 -3.60967 -3.54022 2.60382e-07
556 1 28.4672 5.65659 -1.80217 -3.54022 1.9125e-07
557 1 28.1135 7.42864 0.00533265 -3.54022 1.82325e-07
558 1 27.7599 9.20065 1.81283 -3.54021 3.85026e-07
559 1 30.2402 6.01053 -3.60967 -3.54022 1.26824e-07
560 1 29.8864 7.78258 -1.80217 -3.54021 2.21722e-07
561 1 29.5328 9.55465 0.0053329 -3.54021 4.88328e-07
562 1 29.1791 11.3268 1.81283 -3.54021 7.72509e-07
563 1 31.6592 8.13669 -3.60967 -3.54021 3.08168e-07
564 1 31.3054 9.90883 -1.80217 -3.54021 5.56958e-07
565 1 30.9516 11.681 0.00533309 -3.54021 6.48671e-07
566 1 30.5976 13.4533 1.81283 -3.54021 5.93707e-07
567 1 33.078 10.2632 -3.60967 -3.54022 5.40145e-07
568 1 32.7239 12.0355 -1.80217 -3.54021 4.18084e-07
569 1 32.3698 13.8079 0.00533325 -3.54021 3.16715e-07
570 1 32.0156 15.5803 1.81283 -3.54021 3.1616e-07
571 1 34.4962 12.39 -3.60967 -3.54021 1.44134e-07
572 1 34.1419 14.1624 -1.80217 -3.54021 1.60588e-07
573 1 33.7876 15.9349 0.00533339 -3.54022 2.71867e-07
574 1 33.4331 17.7075 1.81283 -3.54022 2.82623e-07
575 1 35.9141 14.517 -3.60967 -3.54021 2.1717e-07
576 1 35.5596 16.2895 -1.80217 -3.54023 3.94851e-07