ITEM: TIMESTEP
0
ITEM: NUMBER OF ATOMS
2504
ITEM: BOX BOUNDS xy xz yz mm pp pp
-5.5498871899999997e+01 5.5498871899999997e+01 0.0000000000000000e+00
-1.8432957300000002e+01 1.8432957300000002e+01 0.0000000000000000e+00
-3.6150000000000002e+00 3.6150000000000002e+00 0.0000000000000000e+00
ITEM: ATOMS id type x y z c_eng c_csym
1 1 0.627764 16.7992 -3.59368 -3.43622 3.45063
2 1 0.295367 -18.2439 -1.78618 -3.27713 8.9455
3 1 0.962772 13.0727 -3.59368 -3.50703 0.281412
4 1 0.826635 14.8358 -1.78618 -3.504 0.579509
5 1 0.627764 16.7992 0.021321 -3.43622 3.45063
6 1 0.295367 -18.2439 1.82882 -3.27713 8.9455
7 1 2.55622 15.1915 -3.59368 -3.53927 0.117342
8 1 2.27564 17.0381 -1.78618 -3.51685 0.0914962
9 1 3.95828 17.388 -3.59368 -3.54291 0.0318756
10 1 0.442949 7.37024 -3.59368 -3.51979 0.201407
11 1 0.1059 9.09419 -1.78618 -3.45231 0.730885
12 1 1.76013 9.57483 -3.59368 -3.52324 0.0981968
13 1 1.2897 11.3497 -1.78618 -3.5234 0.244185
14 1 0.962772 13.0727 0.021321 -3.50703 0.281412
15 1 0.826635 14.8358 1.82882 -3.504 0.579509
16 1 3.14877 11.6839 -3.59368 -3.53037 0.0266587
17 1 2.85079 13.4073 -1.78618 -3.52022 0.0570889
18 1 2.55622 15.1915 0.021321 -3.53927 0.117342
19 1 2.27564 17.0381 1.82882 -3.51685 0.0914962
20 1 4.6489 13.7781 -3.59368 -3.53396 0.0129297
21 1 4.31288 15.558 -1.78618 -3.53746 0.0204733
22 1 3.95828 17.388 0.021321 -3.54291 0.0318756
23 1 6.06767 15.9293 -3.59368 -3.54124 0.00445591
24 1 5.70998 17.7214 -1.78618 -3.54511 0.0181257
25 1 7.49927 18.0537 -3.59368 -3.54198 0.00528585
26 1 1.14168 3.7826 -3.59368 -3.54618 0.0309113
27 1 0.78971 5.5824 -1.78618 -3.54626 0.0135178
28 1 0.442949 7.37024 0.021321 -3.51979 0.201237
29 1 0.1059 9.09419 1.82882 -3.45321 0.730885
30 1 2.55059 5.94734 -3.59368 -3.54054 0.00638403
31 1 2.19929 7.73666 -1.78618 -3.52491 0.0379551
32 1 1.76013 9.57483 0.021321 -3.52324 0.0981968
33 1 1.2897 11.3497 1.82882 -3.52346 0.244185
34 1 3.91669 8.13399 -3.59368 -3.54148 0.0108898
35 1 3.51293 9.92707 -1.78618 -3.54293 0.0460513
36 1 3.14877 11.6839 0.021321 -3.53037 0.0266587
37 1 2.85079 13.4073 1.82882 -3.52022 0.0570889
38 1 5.31292 10.2679 -3.59368 -3.54088 0.0074304
39 1 4.97803 12.0203 -1.78618 -3.53423 0.00496921
40 1 4.6489 13.7781 0.021322 -3.53396 0.0129297
41 1 4.31288 15.558 1.82882 -3.53746 0.0204733
42 1 6.77285 12.3762 -3.59368 -3.53752 0.00236356
43 1 6.42621 14.1455 -1.78618 -3.53786 0.00217179
44 1 6.06767 15.9293 0.021322 -3.54124 0.00445591
45 1 5.70998 17.7214 1.82882 -3.54511 0.0181257
46 1 8.19948 14.5087 -3.59368 -3.54043 0.000576898
47 1 7.84312 16.2828 -1.78618 -3.54168 0.00356321
48 1 7.49927 18.0537 0.021322 -3.54198 0.00528585
49 1 9.63296 16.6294 -3.59368 -3.54079 0.00138829
50 1 9.29793 18.3909 -1.78618 -3.53986 0.000928692
51 1 0.468138 -1.87368 -3.59368 -3.52203 0.0852231
52 1 0.144706 -0.175961 -1.78618 -3.49299 0.196591
53 1 1.91566 0.246428 -3.59368 -3.53414 0.0129125
54 1 1.52759 2.00238 -1.78618 -3.53864 0.00927554
55 1 1.14168 3.7826 0.021321 -3.54618 0.0307409
56 1 0.78971 5.5824 1.82882 -3.54513 0.0135178
57 1 3.2946 2.40921 -3.59368 -3.53936 0.00109448
58 1 2.91441 4.17303 -1.78618 -3.54146 0.00280554
59 1 2.55059 5.94734 0.021321 -3.54054 0.00638403
60 1 2.19929 7.73666 1.82882 -3.52509 0.0379551
61 1 4.68761 4.56179 -3.59368 -3.53895 0.000677772
62 1 4.31179 6.33518 -1.78618 -3.53768 0.00410668
63 1 3.91669 8.13399 0.021321 -3.54148 0.0108898
64 1 3.51293 9.92707 1.82882 -3.54293 0.0460513
65 1 6.06731 6.72285 -3.59368 -3.54105 0.0025205
66 1 5.67972 8.50044 -1.78618 -3.54309 0.0101108
67 1 5.31292 10.2679 0.021322 -3.54088 0.0074304
68 1 4.97803 12.0203 1.82882 -3.53423 0.00496921
69 1 7.46855 8.85748 -3.59368 -3.54086 0.0026164
70 1 7.11567 10.6159 -1.78618 -3.53876 0.000738913
71 1 6.77285 12.3762 0.021322 -3.53752 0.00236356
72 1 6.42621 14.1455 1.82882 -3.53786 0.00217179
73 1 8.90762 10.9731 -3.59368 -3.53898 0.000389576
74 1 8.55546 12.7374 -1.78618 -3.53928 0.000441794
75 1 8.19948 14.5087 0.021322 -3.54043 0.000576898
76 1 7.84312 16.2828 1.82882 -3.54168 0.00356321
77 1 10.3364 13.0976 -3.59368 -3.54029 0.000147488
78 1 9.98119 14.8643 -1.78618 -3.5409 0.000899625
79 1 9.63296 16.6294 0.021322 -3.54079 0.00138829
80 1 9.29793 18.3909 1.82882 -3.53986 0.000928692
81 1 11.7697 15.2161 -3.59368 -3.54048 0.000426684
82 1 11.4267 16.9765 -1.78618 -3.53997 0.000285867
83 1 13.2176 17.3274 -3.59368 -3.53966 0.00021283
84 1 1.20872 -5.37979 -3.59368 -3.54351 0.0817783
85 1 0.821126 -3.63257 -1.78618 -3.55049 0.0484587
86 1 0.468138 -1.87368 0.021321 -3.52203 0.0850527
87 1 0.144706 -0.175961 1.82882 -3.49274 0.196591
88 1 2.62652 -3.23806 -3.59368 -3.54125 0.00819586
89 1 2.27809 -1.50941 -1.78618 -3.5343 0.0106037
90 1 1.91566 0.246428 0.021321 -3.53414 0.0128273
91 1 1.52759 2.00238 1.82882 -3.53838 0.00927554
92 1 4.05897 -1.11003 -3.59368 -3.53931 0.0033332
93 1 3.6804 0.644429 -1.78618 -3.5397 0.00073266
94 1 3.2946 2.40921 0.021321 -3.53936 0.00109448
95 1 2.91441 4.17303 1.82882 -3.54165 0.00280554
96 1 5.44834 1.03666 -3.59368 -3.54076 0.000489817
97 1 5.06587 2.79748 -1.78618 -3.54026 0.000175436
98 1 4.68761 4.56179 0.021322 -3.53895 0.000677772
99 1 4.31179 6.33518 1.82882 -3.53768 0.00410668
100 1 6.83683 3.18007 -3.59368 -3.53965 0.000309973
101 1 6.4551 4.94719 -1.78618 -3.53923 0.000443175
102 1 6.06731 6.72285 0.021322 -3.54105 0.0025205
103 1 5.67972 8.50044 1.82882 -3.54309 0.0101108
104 1 8.222 5.32452 -3.59368 -3.54038 0.000917959
105 1 7.83984 7.09334 -1.78618 -3.54129 0.00278414
106 1 7.46855 8.85748 0.021322 -3.54086 0.0026164
107 1 7.11567 10.6159 1.82882 -3.53876 0.000738913
108 1 9.62362 7.45397 -3.59368 -3.54037 0.00107808
109 1 9.26145 9.21369 -1.78618 -3.53956 0.000289909
110 1 8.90762 10.9731 0.021322 -3.53898 0.000389576
111 1 8.55546 12.7374 1.82882 -3.53928 0.000441794
112 1 11.0498 9.57101 -3.59368 -3.53946 8.07974e-05
113 1 10.693 11.3327 -1.78618 -3.53962 6.47785e-05
114 1 10.3364 13.0976 0.021322 -3.54029 0.000147488
115 1 9.98119 14.8643 1.82882 -3.5409 0.000899625
116 1 12.4765 11.6905 -3.59368 -3.54007 5.92809e-05
117 1 12.1208 13.4538 -1.78618 -3.54046 0.00026118
118 1 11.7697 15.2161 0.021323 -3.54048 0.000426684
119 1 11.4267 16.9765 1.82882 -3.53997 0.000285867
120 1 13.9076 13.8071 -3.59368 -3.54026 0.000147512
121 1 13.5598 15.5675 -1.78618 -3.54004 0.000103893
122 1 13.2176 17.3274 0.021323 -3.53966 0.00021283
123 1 15.3475 15.9203 -3.59368 -3.53985 8.8301e-05
124 1 15.0035 17.6817 -1.78618 -3.53968 0.000258085
125 1 16.7846 18.0384 -3.59368 -3.53982 0.000209316
126 1 0.728256 -10.8836 -3.59368 -3.46633 2.63011
127 1 0.473353 -9.13004 -1.78618 -3.29997 8.01333
128 1 2.13297 -8.8061 -3.59368 -3.49899 0.271233
129 1 1.69479 -7.0461 -1.78618 -3.49823 0.255082
130 1 1.20872 -5.37979 0.021321 -3.54351 0.0816079
131 1 0.821126 -3.63257 1.82882 -3.54951 0.0484587
132 1 3.44243 -6.68796 -3.59368 -3.53 0.0615209
133 1 3.02802 -4.94418 -1.78618 -3.53148 0.0368521
134 1 2.62652 -3.23806 0.021321 -3.54125 0.00819586
135 1 2.27809 -1.50941 1.82882 -3.53458 0.0106037
136 1 4.81352 -4.58629 -3.59368 -3.53558 0.0167208
137 1 4.43668 -2.84662 -1.78618 -3.53476 0.00806165
138 1 4.05897 -1.11003 0.021322 -3.53931 0.0033332
139 1 3.6804 0.644429 1.82882 -3.53979 0.00073266
140 1 6.21314 -2.47679 -3.59368 -3.53707 0.00558834
141 1 5.83333 -0.720136 -1.78618 -3.53886 0.00232819
142 1 5.44834 1.03666 0.021322 -3.54076 0.000489817
143 1 5.06587 2.79748 1.82882 -3.54026 0.000175436
144 1 7.59937 -0.347454 -3.59368 -3.53917 0.00186908
145 1 7.21839 1.417 -1.78618 -3.53971 0.000865301
146 1 6.83683 3.18007 0.021322 -3.53965 0.000309973
147 1 6.4551 4.94719 1.82882 -3.53923 0.000443175
148 1 8.98503 1.78646 -3.59368 -3.53938 0.000819931
149 1 8.60509 3.55531 -1.78618 -3.53955 0.000508085
150 1 8.222 5.32452 0.021322 -3.54038 0.000917959
151 1 7.83984 7.09334 1.82882 -3.54129 0.00278414
152 1 10.3728 3.92098 -3.59368 -3.53995 0.000739933
153 1 9.99573 5.68988 -1.78618 -3.54043 0.0011586
154 1 9.62362 7.45397 0.021322 -3.54037 0.00107808
155 1 9.26145 9.21369 1.82882 -3.53956 0.000289909
156 1 11.774 6.0467 -3.59368 -3.54012 0.000667926
157 1 11.4094 7.81019 -1.78618 -3.53977 0.000294858
158 1 11.0498 9.57101 0.0213229 -3.53946 8.07974e-05
159 1 10.693 11.3327 1.82882 -3.53962 6.47785e-05
160 1 13.1927 8.16423 -3.59368 -3.53972 0.000140956
161 1 12.8341 9.92744 -1.78618 -3.53974 5.85618e-05
162 1 12.4765 11.6905 0.021323 -3.54007 5.92809e-05
163 1 12.1208 13.4538 1.82882 -3.54046 0.00026118
164 1 14.6163 10.2816 -3.59368 -3.54 8.42701e-05
165 1 14.2605 12.0451 -1.78618 -3.5402 0.000116678
166 1 13.9076 13.8071 0.021323 -3.54026 0.000147512
167 1 13.5598 15.5675 1.82882 -3.54004 0.000103893
168 1 16.0446 12.3973 -3.59368 -3.54015 8.52208e-05
169 1 15.6943 14.1593 -1.78618 -3.54005 5.67693e-05
170 1 15.3475 15.9203 0.021323 -3.53985 8.8301e-05
171 1 15.0035 17.6817 1.82882 -3.53968 0.000258085
172 1 17.4787 14.5117 -3.59368 -3.53996 5.66159e-05
173 1 17.1313 16.2746 -1.78618 -3.53985 0.000123595
174 1 16.7846 18.0384 0.021323 -3.53982 0.000209316
175 1 18.9112 16.63 -3.59368 -3.53993 0.000116277
176 1 18.562 18.3962 -1.78618 -3.53996 0.000133073
177 1 0.999711 -14.5043 -3.59368 -3.48896 0.452683
178 1 0.894431 -12.7631 -1.78618 -3.52846 0.431684
179 1 0.728256 -10.8836 0.021321 -3.46633 2.63011
180 1 0.473353 -9.13004 1.82882 -3.29728 8.01333
181 1 2.67557 -12.4531 -3.59368 -3.54219 0.12824
182 1 2.44126 -10.6616 -1.78618 -3.53253 0.096553
183 1 2.13297 -8.8061 0.021321 -3.49899 0.271148
184 1 1.69479 -7.0461 1.82882 -3.49871 0.255082
185 1 4.15734 -10.3158 -3.59368 -3.54283 0.0266017
186 1 3.81898 -8.49779 -1.78618 -3.53877 0.0108816
187 1 3.44243 -6.68796 0.021321 -3.53 0.0615209
188 1 3.02802 -4.94418 1.82882 -3.53164 0.0368521
189 1 5.5427 -8.15769 -3.59368 -3.54332 0.00290889
190 1 5.18318 -6.36033 -1.78618 -3.54053 0.00661545
191 1 4.81352 -4.58629 0.021322 -3.53558 0.0167208
192 1 4.43668 -2.84662 1.82882 -3.53476 0.00806165
193 1 6.93546 -6.02344 -3.59368 -3.54129 0.000555651
194 1 6.57957 -4.24391 -1.78618 -3.53865 0.0029747
195 1 6.21314 -2.47679 0.021322 -3.53707 0.00558834
196 1 5.83333 -0.720136 1.82882 -3.53886 0.00232819
197 1 8.33768 -3.89648 -3.59368 -3.53974 0.000537753
198 1 7.9739 -2.11852 -1.78618 -3.53907 0.00167537
199 1 7.59937 -0.347454 0.021322 -3.53917 0.00186908
200 1 7.21839 1.417 1.82882 -3.53971 0.000865301
201 1 9.73084 -1.76338 -3.59368 -3.53988 0.000398
202 1 9.36086 0.0142523 -1.78618 -3.53957 0.000826743
203 1 8.98503 1.78646 0.021322 -3.53938 0.000819931
204 1 8.60509 3.55531 1.82882 -3.53955 0.000508085
205 1 11.1209 0.37122 -3.59368 -3.53984 0.000303151
206 1 10.7489 2.14803 -1.78618 -3.53968 0.000521975
207 1 10.3728 3.92098 0.0213229 -3.53995 0.000739933
208 1 9.99573 5.68988 1.82882 -3.54043 0.0011586
209 1 12.5134 2.504 -3.59368 -3.54007 0.000387543
210 1 12.1431 4.27806 -1.78618 -3.54016 0.000663755
211 1 11.774 6.0467 0.021323 -3.54012 0.000667926
212 1 11.4094 7.81019 1.82882 -3.53977 0.000294858
213 1 13.916 4.62993 -3.59368 -3.54017 0.00037424
214 1 13.5531 6.39905 -1.78618 -3.53994 0.000286863
215 1 13.1927 8.16423 0.021323 -3.53972 0.000140956
216 1 12.8341 9.92744 1.82882 -3.53974 5.85618e-05
217 1 15.3313 6.74944 -3.59368 -3.53996 0.000128814
218 1 14.9734 8.51651 -1.78618 -3.53989 9.81502e-05
219 1 14.6163 10.2816 0.021323 -3.54 8.42701e-05
220 1 14.2605 12.0451 1.82882 -3.5402 0.000116678
221 1 16.7528 8.86723 -3.59368 -3.54007 7.63702e-05
222 1 16.3978 10.6333 -1.78618 -3.54013 8.8462e-05
223 1 16.0446 12.3973 0.021323 -3.54015 8.52208e-05
224 1 15.6943 14.1593 1.82882 -3.54005 5.67693e-05
225 1 18.1788 10.9837 -3.59368 -3.54016 5.7269e-05
226 1 17.8278 12.7485 -1.78618 -3.54008 4.78024e-05
227 1 17.4787 14.5117 0.021323 -3.53996 5.66159e-05
228 1 17.1313 16.2746 1.82882 -3.53985 0.000123595
229 1 19.6089 13.0997 -3.59368 -3.54005 3.99876e-05
230 1 19.2599 14.8648 -1.78618 -3.53996 7.26958e-05
231 1 18.9112 16.63 0.0213231 -3.53993 0.000116277
232 1 18.562 18.3962 1.82882 -3.53996 0.000133073
233 1 21.0381 15.2186 -3.59368 -3.54002 6.96245e-05
234 1 20.6879 16.986 -1.78618 -3.54001 8.50135e-05
235 1 22.4623 17.3422 -3.59368 -3.54009 5.47291e-05
236 1 1.89264 -17.9018 -3.59368 -3.45033 0.59882
237 1 1.36788 -16.1175 -1.78618 -3.44411 0.666062
238 1 0.999711 -14.5043 0.021321 -3.48896 0.452683
239 1 0.894431 -12.7631 1.82882 -3.52846 0.431684
240 1 3.25474 -15.856 -3.59368 -3.51737 0.0994516
241 1 2.95859 -14.1654 -1.78618 -3.50882 0.0575696
242 1 2.67557 -12.4531 0.021321 -3.54219 0.12824
243 1 2.44126 -10.6616 1.82882 -3.53263 0.096553
244 1 4.78761 -13.8396 -3.59368 -3.53 0.0211957
245 1 4.47974 -12.097 -1.78618 -3.53435 0.0259851
246 1 4.15734 -10.3158 0.021322 -3.54283 0.0266017
247 1 3.81898 -8.49779 1.82882 -3.53886 0.0108816
248 1 6.24513 -11.7366 -3.59368 -3.53707 0.00598784
249 1 5.89773 -9.95412 -1.78618 -3.5413 0.00255877
250 1 5.5427 -8.15769 0.021322 -3.54332 0.00290889
251 1 5.18318 -6.36033 1.82882 -3.54053 0.00661545
252 1 7.64682 -9.59654 -3.59368 -3.5404 0.000203143
253 1 7.29037 -7.80973 -1.78618 -3.54176 0.000672703
254 1 6.93546 -6.02344 0.021322 -3.54129 0.000555651
255 1 6.57957 -4.24391 1.82882 -3.53865 0.0029747
256 1 9.04729 -7.46032 -3.59368 -3.5405 6.28148e-05
257 1 8.69353 -5.67788 -1.78618 -3.5404 7.40503e-05
258 1 8.33768 -3.89648 0.021322 -3.53974 0.000537753
259 1 7.9739 -2.11852 1.82882 -3.53907 0.00167537
260 1 10.4521 -5.3273 -3.59368 -3.54 7.30377e-05
261 1 10.0942 -3.54483 -1.78618 -3.54003 0.000148
262 1 9.73084 -1.76338 0.021322 -3.53988 0.000398
263 1 9.36086 0.0142523 1.82882 -3.53957 0.000826743
264 1 11.8513 -3.19142 -3.59368 -3.54008 5.34167e-05
265 1 11.4883 -1.40905 -1.78618 -3.54006 0.0001143
266 1 11.1209 0.37122 0.0213229 -3.53984 0.000303151
267 1 10.7489 2.14803 1.82882 -3.53968 0.000521975
268 1 13.2473 -1.05516 -3.59368 -3.5401 5.87383e-05
269 1 12.8818 0.725754 -1.78618 -3.54006 0.000162345
270 1 12.5134 2.504 0.021323 -3.54007 0.000387543
271 1 12.1431 4.27806 1.82882 -3.54016 0.000663755
272 1 14.6451 1.07839 -3.59368 -3.54022 0.000150126
273 1 14.2805 2.85612 -1.78618 -3.54025 0.000290316
274 1 13.916 4.62993 0.021323 -3.54017 0.00037424
275 1 13.5531 6.39905 1.82882 -3.53994 0.000286863
276 1 16.0503 3.20611 -3.59368 -3.54027 0.000174152
277 1 15.6901 4.97948 -1.78618 -3.54014 0.000166287
278 1 15.3313 6.74944 0.021323 -3.53996 0.000128814
279 1 14.9734 8.51651 1.82882 -3.53989 9.81502e-05
280 1 17.4648 5.32833 -3.59368 -3.54015 7.43867e-05
281 1 17.1085 7.09893 -1.78618 -3.54007 6.89051e-05
282 1 16.7528 8.86723 0.021323 -3.54007 7.63702e-05
283 1 16.3978 10.6333 1.82882 -3.54013 8.8462e-05
284 1 18.8853 7.448 -3.59368 -3.54017 4.29039e-05
285 1 18.5315 9.2169 -1.78618 -3.54017 5.33674e-05
286 1 18.1788 10.9837 0.0213231 -3.54016 5.7269e-05
287 1 17.8278 12.7485 1.82882 -3.54008 4.78024e-05
288 1 20.3099 9.56621 -3.59368 -3.5402 2.85796e-05
289 1 19.9588 11.3337 -1.78618 -3.54014 3.01595e-05
290 1 19.6089 13.0997 0.021324 -3.54005 3.99876e-05
291 1 19.2599 14.8648 1.82882 -3.53996 7.26958e-05
292 1 21.7374 11.6842 -3.59368 -3.54013 2.13751e-05
293 1 21.3877 13.4516 -1.78618 -3.54006 4.21407e-05
294 1 21.0381 15.2186 0.021324 -3.54002 6.96245e-05
295 1 20.6879 16.986 1.82882 -3.54001 8.50135e-05
296 1 23.1643 13.8042 -3.59368 -3.54009 3.94048e-05
297 1 22.8138 15.573 -1.78618 -3.54007 5.35583e-05
298 1 22.4623 17.3422 0.0213241 -3.54009 5.47291e-05
299 1 24.5876 15.9278 -3.59368 -3.54012 3.62738e-05
300 1 24.2351 17.6984 -1.78618 -3.54013 3.32304e-05
301 1 26.0068 18.0545 -3.59368 -3.54016 1.96426e-05
302 1 1.89264 -17.9018 0.021321 -3.45033 0.59882
303 1 1.36788 -16.1175 1.82882 -3.44411 0.666062
304 1 3.59631 -17.6421 -1.78618 -3.5403 0.0772976
305 1 3.25474 -15.856 0.021321 -3.51737 0.0994516
306 1 2.95859 -14.1654 1.82882 -3.50882 0.0575696
307 1 5.37745 -17.3564 -3.59368 -3.54439 0.0160879
308 1 5.08084 -15.5892 -1.78618 -3.5358 0.0082686
309 1 4.78761 -13.8396 0.021322 -3.53 0.0211957
310 1 4.47974 -12.097 1.82882 -3.53435 0.0259851
311 1 6.87728 -15.2805 -3.59368 -3.5384 0.00502304
312 1 6.57183 -13.5111 -1.78618 -3.53623 0.00929918
313 1 6.24513 -11.7366 0.021322 -3.53707 0.00598784
314 1 5.89773 -9.95412 1.82882 -3.5413 0.00255877
315 1 8.33595 -13.1678 -3.59368 -3.53886 0.00315401
316 1 7.99824 -11.3831 -1.78618 -3.53915 0.00108163
317 1 7.64682 -9.59654 0.021322 -3.5404 0.000203143
318 1 7.29037 -7.80973 1.82882 -3.54176 0.000672703
319 1 9.75173 -11.0308 -3.59368 -3.54018 0.000224487
320 1 9.40101 -9.24457 -1.78618 -3.54031 8.51352e-05
321 1 9.04729 -7.46032 0.021322 -3.5405 6.28148e-05
322 1 8.69353 -5.67788 1.82882 -3.5404 7.40503e-05
323 1 11.1588 -8.89328 -3.59368 -3.54028 4.64764e-05
324 1 10.8065 -7.10988 -1.78618 -3.54006 2.36767e-05
325 1 10.4521 -5.3273 0.0213229 -3.54 7.30377e-05
326 1 10.0942 -3.54483 1.82882 -3.54003 0.000148
327 1 12.566 -6.75746 -3.59368 -3.54003 4.65045e-05
328 1 12.2104 -4.97446 -1.78618 -3.53999 5.14332e-05
329 1 11.8513 -3.19142 0.021323 -3.54008 5.34167e-05
330 1 11.4883 -1.40905 1.82882 -3.54006 0.0001143
331 1 13.9695 -4.62041 -3.59368 -3.54008 3.24262e-05
332 1 13.6099 -2.83752 -1.78618 -3.5401 2.89597e-05
333 1 13.2473 -1.05516 0.021323 -3.5401 5.87383e-05
334 1 12.8818 0.725754 1.82882 -3.54006 0.000162345
335 1 15.3703 -2.48354 -3.59368 -3.54016 3.04788e-05
336 1 15.0086 -0.701904 -1.78618 -3.54018 6.32978e-05
337 1 14.6451 1.07839 0.021323 -3.54022 0.000150126
338 1 14.2805 2.85612 1.82882 -3.54025 0.000290316
339 1 16.7724 -0.349376 -3.59368 -3.54026 7.81069e-05
340 1 16.4113 1.42955 -1.78618 -3.5403 0.00013261
341 1 16.0503 3.20611 0.021323 -3.54027 0.000174152
342 1 15.6901 4.97948 1.82882 -3.54014 0.000166287
343 1 18.1801 1.77991 -3.59368 -3.5403 9.37767e-05
344 1 17.822 3.5553 -1.78618 -3.54024 8.9923e-05
345 1 17.4648 5.32833 0.021323 -3.54015 7.43867e-05
346 1 17.1085 7.09893 1.82882 -3.54007 6.89051e-05
347 1 19.5949 3.90446 -3.59368 -3.54023 4.72655e-05
348 1 19.2397 5.67714 -1.78618 -3.54019 3.95329e-05
349 1 18.8853 7.448 0.021324 -3.54017 4.29039e-05
350 1 18.5315 9.2169 1.82882 -3.54017 5.33674e-05
351 1 21.0149 6.02618 -3.59368 -3.54022 2.41075e-05
352 1 20.662 7.79701 -1.78618 -3.54022 2.56379e-05
353 1 20.3099 9.56621 0.021324 -3.5402 2.85796e-05
354 1 19.9588 11.3337 1.82882 -3.54014 3.01595e-05
355 1 22.4386 8.14636 -3.59368 -3.54023 1.24405e-05
356 1 22.0876 9.91584 -1.78618 -3.54019 1.33033e-05
357 1 21.7374 11.6842 0.0213241 -3.54013 2.13751e-05
358 1 21.3877 13.4516 1.82882 -3.54006 4.21407e-05
359 1 23.8644 10.2662 -3.59368 -3.54018 9.3117e-06
360 1 23.5144 12.0354 -1.78618 -3.54013 2.13811e-05
361 1 23.1643 13.8042 0.0213241 -3.54009 3.94048e-05
362 1 22.8138 15.573 1.82882 -3.54007 5.35583e-05
363 1 25.2898 12.3876 -3.59368 -3.54014 2.11015e-05
364 1 24.9391 14.1576 -1.78618 -3.54012 3.15821e-05
365 1 24.5876 15.9278 0.0213241 -3.54012 3.62738e-05
366 1 24.2351 17.6984 1.82882 -3.54013 3.32304e-05
367 1 26.7125 14.5116 -3.59368 -3.54015 2.2689e-05
368 1 26.3601 16.2829 -1.78618 -3.54016 2.28615e-05
369 1 26.0068 18.0545 0.0213241 -3.54016 1.96426e-05
370 1 28.1317 16.6381 -3.59368 -3.54018 1.37874e-05
371 1 27.7777 18.4105 -1.78618 -3.54018 1.13438e-05
372 1 3.59631 -17.6421 1.82882 -3.5403 0.0772976
373 1 5.37745 -17.3564 0.021322 -3.54439 0.0160879
374 1 5.08084 -15.5892 1.82882 -3.5358 0.0082686
375 1 7.17969 -17.0466 -1.78618 -3.54048 0.00305624
376 1 6.87728 -15.2805 0.021322 -3.5384 0.00502304
377 1 6.57183 -13.5111 1.82882 -3.53623 0.00929918
378 1 8.97597 -16.7135 -3.59368 -3.5391 0.00211504
379 1 8.65916 -14.9456 -1.78618 -3.53888 0.00399301
380 1 8.33595 -13.1678 0.021322 -3.53886 0.00315401
381 1 7.99824 -11.3831 1.82882 -3.53915 0.00108163
382 1 10.4321 -14.5955 -3.59368 -3.53947 0.00193751
383 1 10.0959 -12.8161 -1.78618 -3.53994 0.00102525
384 1 9.75173 -11.0308 0.021322 -3.54018 0.000224487
385 1 9.40101 -9.24457 1.82882 -3.54031 8.51352e-05
386 1 11.8571 -12.4602 -3.59368 -3.5403 0.000379602
387 1 11.5093 -10.6774 -1.78618 -3.54043 0.000141167
388 1 11.1588 -8.89328 0.0213229 -3.54028 4.64764e-05
389 1 10.8065 -7.10988 1.82882 -3.54006 2.36767e-05
390 1 13.2706 -10.3221 -3.59368 -3.54037 0.000112952
391 1 12.9191 -8.54017 -1.78618 -3.54022 6.25595e-05
392 1 12.566 -6.75746 0.021323 -3.54003 4.65045e-05
393 1 12.2104 -4.97446 1.82882 -3.53999 5.14332e-05
394 1 14.681 -8.18483 -3.59368 -3.54019 6.9264e-05
395 1 14.3263 -6.40308 -1.78618 -3.54011 4.95478e-05
396 1 13.9695 -4.62041 0.021323 -3.54008 3.24262e-05
397 1 13.6099 -2.83752 1.82882 -3.5401 2.89597e-05
398 1 16.0879 -6.04727 -3.59368 -3.54017 4.15101e-05
399 1 15.73 -4.2656 -1.78618 -3.54016 2.82557e-05
400 1 15.3703 -2.48354 0.021323 -3.54016 3.04788e-05
401 1 15.0086 -0.701904 1.82882 -3.54018 6.32978e-05
402 1 17.4926 -3.91037 -3.59368 -3.54022 3.17213e-05
403 1 17.133 -2.12966 -1.78618 -3.54023 4.35056e-05
404 1 16.7724 -0.349376 0.021323 -3.54026 7.81069e-05
405 1 16.4113 1.42955 1.82882 -3.5403 0.00013261
406 1 18.8982 -1.77601 -3.59368 -3.54029 5.35968e-05
407 1 18.539 0.00257489 -1.78618 -3.54031 7.69623e-05
408 1 18.1801 1.77991 0.0213231 -3.5403 9.37767e-05
409 1 17.822 3.5553 1.82882 -3.54024 8.9923e-05
410 1 20.3081 0.354244 -3.59368 -3.54031 6.12277e-05
411 1 19.951 2.13008 -1.78618 -3.54028 5.84845e-05
412 1 19.5949 3.90446 0.021324 -3.54023 4.72655e-05
413 1 19.2397 5.67714 1.82882 -3.54019 3.95329e-05
414 1 21.7233 2.48044 -3.59368 -3.54027 3.61785e-05
415 1 21.3687 4.25393 -1.78618 -3.54024 2.79578e-05
416 1 21.0149 6.02618 0.021324 -3.54022 2.41075e-05
417 1 20.662 7.79701 1.82882 -3.54022 2.56379e-05
418 1 23.1431 4.60388 -3.59368 -3.54025 1.76031e-05
419 1 22.7904 6.37566 -1.78618 -3.54024 1.40835e-05
420 1 22.4386 8.14636 0.0213241 -3.54023 1.24405e-05
421 1 22.0876 9.91584 1.82882 -3.54019 1.33033e-05
422 1 24.566 6.72575 -3.59368 -3.54024 6.98415e-06
423 1 24.2149 8.49637 -1.78618 -3.54022 5.58901e-06
424 1 23.8644 10.2662 0.0213241 -3.54018 9.3117e-06
425 1 23.5144 12.0354 1.82882 -3.54013 2.13811e-05
426 1 25.9907 8.84726 -3.59368 -3.5402 4.4864e-06
427 1 25.6402 10.6175 -1.78618 -3.54017 1.05197e-05
428 1 25.2898 12.3876 0.0213241 -3.54014 2.11015e-05
429 1 24.9391 14.1576 1.82882 -3.54012 3.15821e-05
430 1 27.415 10.9698 -3.59368 -3.54017 1.17727e-05
431 1 27.064 12.7406 -1.78618 -3.54016 1.84291e-05
432 1 26.7125 14.5116 0.0213241 -3.54015 2.2689e-05
433 1 26.3601 16.2829 1.82882 -3.54016 2.28615e-05
434 1 28.8371 13.0944 -3.59368 -3.54018 1.44081e-05
435 1 28.4848 14.8661 -1.78618 -3.54017 1.51117e-05
436 1 28.1317 16.6381 0.0213242 -3.54018 1.37874e-05
437 1 27.7777 18.4105 1.82882 -3.54018 1.13438e-05
438 1 30.2565 15.2209 -3.59368 -3.54019 9.50614e-06
439 1 29.9028 16.9935 -1.78618 -3.54019 8.1045e-06
440 1 31.6736 17.3489 -3.59368 -3.5402 4.77991e-06
441 1 7.17969 -17.0466 1.82882 -3.54048 0.00305624
442 1 8.97597 -16.7135 0.021322 -3.5391 0.00211504
443 1 8.65916 -14.9456 1.82882 -3.53888 0.00399301
444 1 11.0922 -18.1295 -3.59368 -3.53931 0.000627562
445 1 10.7626 -16.3663 -1.78618 -3.5391 0.00165865
446 1 10.4321 -14.5955 0.021322 -3.53947 0.00193751
447 1 10.0959 -12.8161 1.82882 -3.53994 0.00102525
448 1 12.5416 -16.011 -3.59368 -3.53951 0.000919455
449 1 12.2013 -14.2388 -1.78618 -3.5399 0.000745624
450 1 11.8571 -12.4602 0.021323 -3.5403 0.000379602
451 1 11.5093 -10.6774 1.82882 -3.54043 0.000141167
452 1 13.9696 -13.8793 -3.59368 -3.54013 0.00027539
453 1 13.6209 -12.1023 -1.78618 -3.54034 0.00017313
454 1 13.2706 -10.3221 0.021323 -3.54037 0.000112952
455 1 12.9191 -8.54017 1.82882 -3.54022 6.25595e-05
456 1 15.3866 -11.7433 -3.59368 -3.54028 9.11707e-05
457 1 15.0342 -9.96508 -1.78618 -3.54027 8.38844e-05
458 1 14.681 -8.18483 0.021323 -3.54019 6.9264e-05
459 1 14.3263 -6.40308 1.82882 -3.54011 4.95478e-05
460 1 16.7991 -9.60677 -3.59368 -3.54022 5.68741e-05
461 1 16.4441 -7.82785 -1.78618 -3.54019 5.46377e-05
462 1 16.0879 -6.04727 0.021323 -3.54017 4.15101e-05
463 1 15.73 -4.2656 1.82882 -3.54016 2.82557e-05
464 1 18.2085 -7.47 -3.59368 -3.54021 3.55874e-05
465 1 17.8511 -5.69069 -1.78618 -3.54022 3.26936e-05
466 1 17.4926 -3.91037 0.021323 -3.54022 3.17213e-05
467 1 17.133 -2.12966 1.82882 -3.54023 4.35056e-05
468 1 19.616 -5.33389 -3.59368 -3.54025 2.7381e-05
469 1 19.2573 -3.55507 -1.78618 -3.54027 3.665e-05
470 1 18.8982 -1.77601 0.021324 -3.54029 5.35968e-05
471 1 18.539 0.00257489 1.82882 -3.54031 7.69623e-05
472 1 21.0242 -3.19998 -3.59368 -3.54029 3.83684e-05
473 1 20.6659 -1.42262 -1.78618 -3.54031 5.24365e-05
474 1 20.3081 0.354244 0.021324 -3.54031 6.12277e-05
475 1 19.951 2.13008 1.82882 -3.54028 5.84845e-05
476 1 22.4356 -1.06943 -3.59368 -3.5403 4.27416e-05
477 1 22.079 0.7059 -1.78618 -3.54029 4.30176e-05
478 1 21.7233 2.48044 0.0213241 -3.54027 3.61785e-05
479 1 21.3687 4.25393 1.82882 -3.54024 2.79578e-05
480 1 23.8513 1.05771 -3.59368 -3.54027 2.86168e-05
481 1 23.4967 2.83117 -1.78618 -3.54026 2.30678e-05
482 1 23.1431 4.60388 0.0213241 -3.54025 1.76031e-05
483 1 22.7904 6.37566 1.82882 -3.54024 1.40835e-05
484 1 25.2709 3.18233 -3.59368 -3.54026 1.44182e-05
485 1 24.918 4.95437 -1.78618 -3.54025 1.03786e-05
486 1 24.566 6.72575 0.0213241 -3.54024 6.98415e-06
487 1 24.2149 8.49637 1.82882 -3.54022 5.58901e-06
488 1 26.6931 5.30548 -3.59368 -3.54024 5.37942e-06
489 1 26.3415 7.07659 -1.78618 -3.54023 3.48143e-06
490 1 25.9907 8.84726 0.0213241 -3.5402 4.4864e-06
491 1 25.6402 10.6175 1.82882 -3.54017 1.05197e-05
492 1 28.1167 7.42822 -3.59368 -3.54021 2.92907e-06
493 1 27.7658 9.19905 -1.78618 -3.54019 5.88814e-06
494 1 27.415 10.9698 0.0213242 -3.54017 1.17727e-05
495 1 27.064 12.7406 1.82882 -3.54016 1.84291e-05
496 1 29.5402 9.5517 -3.59368 -3.54019 7.24063e-06
497 1 29.1888 11.3229 -1.78618 -3.54018 1.14309e-05
498 1 28.8371 13.0944 0.0213242 -3.54018 1.44081e-05
499 1 28.4848 14.8661 1.82882 -3.54017 1.51117e-05
500 1 30.9619 11.6767 -3.59368 -3.54019 9.71075e-06
501 1 30.6095 13.4486 -1.78618 -3.54019 1.02304e-05
502 1 30.2565 15.2209 0.0213242 -3.54019 9.50614e-06
503 1 29.9028 16.9935 1.82882 -3.54019 8.1045e-06
504 1 32.3814 13.8033 -3.59368 -3.54019 6.61062e-06
505 1 32.0278 15.576 -1.78618 -3.5402 5.80483e-06
506 1 31.6736 17.3489 0.0213242 -3.5402 4.77991e-06
507 1 33.7988 15.9311 -3.59368 -3.54021 3.75199e-06
508 1 33.4442 17.7043 -1.78618 -3.54022 2.88237e-06
509 1 35.2148 18.0596 -3.59368 -3.54023 1.58776e-06
510 1 11.0922 -18.1295 0.0213229 -3.53931 0.000627562
511 1 10.7626 -16.3663 1.82882 -3.5391 0.00165865
512 1 12.8794 -17.777 -1.78618 -3.53941 0.000628993
513 1 12.5416 -16.011 0.021323 -3.53951 0.000919455
514 1 12.2013 -14.2388 1.82882 -3.5399 0.000745624
515 1 14.6604 -17.4202 -3.59368 -3.53968 0.000426418
516 1 14.3162 -15.6521 -1.78618 -3.53986 0.000411057
517 1 13.9696 -13.8793 0.021323 -3.54013 0.00027539
518 1 13.6209 -12.1023 1.82882 -3.54034 0.00017313
519 1 16.0886 -15.2918 -3.59368 -3.54006 0.00016976
520 1 15.7382 -13.5191 -1.78618 -3.5402 0.000112352
521 1 15.3866 -11.7433 0.021323 -3.54028 9.11707e-05
522 1 15.0342 -9.96508 1.82882 -3.54027 8.38844e-05
523 1 17.5071 -13.1586 -3.59368 -3.54021 5.28243e-05
524 1 17.1534 -11.3838 -1.78618 -3.54023 5.18984e-05
525 1 16.7991 -9.60677 0.021323 -3.54022 5.68741e-05
526 1 16.4441 -7.82785 1.82882 -3.54019 5.46377e-05
527 1 18.9209 -11.024 -3.59368 -3.5402 2.94455e-05
528 1 18.565 -9.24783 -1.78618 -3.5402 3.41125e-05
529 1 18.2085 -7.47 0.0213231 -3.54021 3.55874e-05
530 1 17.8511 -5.69069 1.82882 -3.54022 3.26936e-05
531 1 20.3318 -8.88881 -3.59368 -3.54021 1.82846e-05
532 1 19.9742 -7.11193 -1.78618 -3.54023 2.21433e-05
533 1 19.616 -5.33389 0.021324 -3.54025 2.7381e-05
534 1 19.2573 -3.55507 1.82882 -3.54027 3.665e-05
535 1 21.7412 -6.7541 -3.59368 -3.54024 1.56619e-05
536 1 21.3827 -4.97729 -1.78618 -3.54027 2.52888e-05
537 1 21.0242 -3.19998 0.021324 -3.54029 3.83684e-05
538 1 20.6659 -1.42262 1.82882 -3.54031 5.24365e-05
539 1 23.1511 -4.62113 -3.59368 -3.54027 2.38303e-05
540 1 22.7931 -2.84523 -1.78618 -3.54029 3.495e-05
541 1 22.4356 -1.06943 0.0213241 -3.5403 4.27416e-05
542 1 22.079 0.7059 1.82882 -3.54029 4.30176e-05
543 1 24.5636 -2.49083 -3.59368 -3.54028 2.81782e-05
544 1 24.207 -0.716356 -1.78618 -3.54028 3.10035e-05
545 1 23.8513 1.05771 0.0213241 -3.54027 2.86168e-05
546 1 23.4967 2.83117 1.82882 -3.54026 2.30678e-05
547 1 25.9795 -0.363327 -3.59368 -3.54026 2.09425e-05
548 1 25.6247 1.40973 -1.78618 -3.54026 1.83658e-05
549 1 25.2709 3.18233 0.0213241 -3.54026 1.44182e-05
550 1 24.918 4.95437 1.82882 -3.54025 1.03786e-05
551 1 27.3987 1.76199 -3.59368 -3.54025 1.10523e-05
552 1 27.0455 3.53393 -1.78618 -3.54025 8.20873e-06
553 1 26.6931 5.30548 0.0213241 -3.54024 5.37942e-06
554 1 26.3415 7.07659 1.82882 -3.54023 3.48143e-06
555 1 28.8203 3.88599 -3.59368 -3.54024 4.14595e-06
556 1 28.4682 5.65722 -1.78618 -3.54023 2.80081e-06
557 1 28.1167 7.42822 0.0213242 -3.54021 2.92907e-06
558 1 27.7658 9.19905 1.82882 -3.54019 5.88814e-06
559 1 30.243 6.00961 -3.59368 -3.54021 2.07304e-06
560 1 29.8915 7.78064 -1.78618 -3.5402 3.71779e-06
561 1 29.5402 9.5517 0.0213242 -3.54019 7.24063e-06
562 1 29.1888 11.3229 1.82882 -3.54018 1.14309e-05
563 1 31.6657 8.13373 -3.59368 -3.5402 4.63428e-06
564 1 31.3139 9.90507 -1.78618 -3.54019 7.62691e-06
565 1 30.9619 11.6767 0.0213242 -3.54019 9.71075e-06
566 1 30.6095 13.4486 1.82882 -3.54019 1.02304e-05
567 1 33.087 10.259 -3.59368 -3.5402 6.94941e-06
568 1 32.7344 12.031 -1.78618 -3.5402 7.16859e-06
569 1 32.3814 13.8033 0.0213242 -3.54019 6.61062e-06
570 1 32.0278 15.576 1.82882 -3.5402 5.80483e-06
571 1 34.5064 12.3857 -3.59368 -3.5402 4.4144e-06
572 1 34.1529 14.1582 -1.78618 -3.5402 4.04725e-06
573 1 33.7988 15.9311 0.0213242 -3.54021 3.75199e-06
574 1 33.4442 17.7043 1.82882 -3.54022 2.88237e-06
575 1 35.9242 14.5133 -3.59368 -3.54021 2.95305e-06
576 1 35.5698 16.2863 -1.78618 -3.54022 2.83977e-06
577 1 35.2148 18.0596 0.0213242 -3.54023 1.58776e-06
578 1 37.3407 16.6415 -3.59368 -3.54024 2.16164e-06
579 1 36.9854 18.415 -1.78618 -3.54023 4.04319e-07
580 1 12.8794 -17.777 1.82882 -3.53941 0.000628993
581 1 14.6604 -17.4202 0.021323 -3.53968 0.000426418