ITEM: TIMESTEP
0
ITEM: NUMBER OF ATOMS
2504
ITEM: BOX BOUNDS xy xz yz mm pp pp
-5.5498871899999997e+01 5.5498871899999997e+01 0.0000000000000000e+00
-1.8432957300000002e+01 1.8432957300000002e+01 0.0000000000000000e+00
-3.6150000000000002e+00 3.6150000000000002e+00 0.0000000000000000e+00
ITEM: ATOMS id type x y z c_eng c_csym
1 1 0.633849 16.7498 -3.60493 -3.44144 3.59712
2 1 0.289245 -18.3014 -1.79743 -3.28384 9.09216
3 1 0.997269 13.0368 -3.60493 -3.49491 0.341485
4 1 0.86442 14.7905 -1.79743 -3.50385 0.586719
5 1 0.633849 16.7498 0.0100666 -3.44144 3.59712
6 1 0.289245 -18.3014 1.81757 -3.28384 9.09216
7 1 2.58757 15.1733 -3.60493 -3.54123 0.120001
8 1 2.28861 17.0084 -1.79743 -3.52114 0.0800437
9 1 3.97845 17.373 -3.60493 -3.54516 0.0293955
10 1 0.546575 7.43302 -3.60493 -3.51083 1.48527
11 1 0.199774 9.201 -1.79743 -3.33516 4.12721
12 1 1.8342 9.62068 -3.60493 -3.49056 0.313723
13 1 1.34744 11.3817 -1.79743 -3.48804 0.382751
14 1 0.997269 13.0368 0.0100668 -3.49491 0.341485
15 1 0.86442 14.7905 1.81757 -3.50385 0.586719
16 1 3.21592 11.7029 -3.60493 -3.52301 0.0412501
17 1 2.90901 13.4105 -1.79743 -3.51353 0.071362
18 1 2.58757 15.1733 0.0100668 -3.54123 0.120001
19 1 2.28861 17.0084 1.81757 -3.52114 0.0800437
20 1 4.70064 13.7881 -3.60493 -3.5331 0.013656
21 1 4.348 15.5592 -1.79743 -3.53807 0.0129182
22 1 3.97845 17.373 0.0100669 -3.54516 0.0293955
23 1 6.10268 15.9359 -3.60493 -3.54094 0.00255488
24 1 5.7352 17.7196 -1.79743 -3.54486 0.0129483
25 1 7.52172 18.0612 -3.60493 -3.54135 0.00264645
26 1 1.08175 3.78553 -3.60493 -3.52086 0.190024
27 1 0.846983 5.55653 -1.79743 -3.53521 0.162006
28 1 0.546575 7.43302 0.0100666 -3.51083 1.48523
29 1 0.199774 9.201 1.81757 -3.33564 4.12721
30 1 2.58491 5.94378 -3.60493 -3.54187 0.048223
31 1 2.25256 7.75183 -1.79743 -3.524 0.0422606
32 1 1.8342 9.62068 0.0100669 -3.49056 0.313723
33 1 1.34744 11.3817 1.81757 -3.48803 0.382751
34 1 3.95881 8.13881 -3.60493 -3.54441 0.0172874
35 1 3.57101 9.9403 -1.79743 -3.54295 0.0480125
36 1 3.21592 11.7029 0.010067 -3.52301 0.0412501
37 1 2.90901 13.4105 1.81757 -3.51353 0.071362
38 1 5.36239 10.2703 -3.60493 -3.54228 0.00611062
39 1 5.0345 12.0278 -1.79743 -3.53458 0.00726797
40 1 4.70064 13.7881 0.0100675 -3.5331 0.013656
41 1 4.348 15.5592 1.81757 -3.53807 0.0129182
42 1 6.81806 12.3799 -3.60493 -3.53821 0.00292407
43 1 6.46862 14.1536 -1.79743 -3.53816 0.00181717
44 1 6.10268 15.9359 0.0100675 -3.54094 0.00255488
45 1 5.7352 17.7196 1.81757 -3.54486 0.0129483
46 1 8.2339 14.5152 -3.60493 -3.5407 0.000409133
47 1 7.87336 16.2912 -1.79743 -3.54148 0.00237342
48 1 7.52172 18.0612 0.0100676 -3.54135 0.00264645
49 1 9.65532 16.6397 -3.60493 -3.54078 0.000727959
50 1 9.31199 18.4049 -1.79743 -3.53973 0.000321413
51 1 0.55847 -1.79642 -3.60493 -3.51697 1.29729
52 1 0.218099 -0.0408255 -1.79743 -3.3544 3.50296
53 1 1.90765 0.351345 -3.60493 -3.50828 0.217121
54 1 1.45977 2.10339 -1.79743 -3.50207 0.228935
55 1 1.08175 3.78553 0.0100668 -3.52086 0.189986
56 1 0.846983 5.55653 1.81757 -3.53475 0.162006
57 1 3.28478 2.45888 -3.60493 -3.5284 0.0206115
58 1 2.93905 4.18561 -1.79743 -3.52645 0.0267416
59 1 2.58491 5.94378 0.0100668 -3.54188 0.048223
60 1 2.25256 7.75183 1.81757 -3.52407 0.0422606
61 1 4.71892 4.57165 -3.60493 -3.53518 0.0061519
62 1 4.34749 6.33971 -1.79743 -3.53798 0.00609042
63 1 3.95881 8.13881 0.0100669 -3.54441 0.0172874
64 1 3.57101 9.9403 1.81757 -3.54295 0.0480125
65 1 6.10251 6.72421 -3.60493 -3.5408 0.00229246
66 1 5.72091 8.50103 -1.79743 -3.54383 0.00960241
67 1 5.36239 10.2703 0.0100675 -3.54228 0.00611062
68 1 5.0345 12.0278 1.81757 -3.53458 0.00726797
69 1 7.50722 8.85429 -3.60493 -3.54081 0.00183726
70 1 7.159 10.615 -1.79743 -3.53911 0.000963261
71 1 6.81806 12.3799 0.0100676 -3.53821 0.00292407
72 1 6.46862 14.1536 1.81757 -3.53816 0.00181717
73 1 8.94385 10.9708 -3.60493 -3.5391 0.00058797
74 1 8.59178 12.7397 -1.79743 -3.53966 0.000529175
75 1 8.2339 14.5152 0.0100677 -3.5407 0.000409133
76 1 7.87336 16.2912 1.81757 -3.54148 0.00237342
77 1 10.365 13.0991 -3.60493 -3.54045 8.98295e-05
78 1 10.0078 14.8705 -1.79743 -3.54105 0.000585336
79 1 9.65532 16.6397 0.0100678 -3.54078 0.000727959
80 1 9.31199 18.4049 1.81757 -3.53973 0.000321413
81 1 11.7881 15.2229 -3.60493 -3.54059 0.000222877
82 1 11.4398 16.989 -1.79743 -3.54011 0.00010401
83 1 13.2219 17.3412 -3.60493 -3.5399 9.03545e-05
84 1 1.11341 -5.40541 -3.60493 -3.51423 0.224469
85 1 0.861818 -3.65924 -1.79743 -3.54 0.166291
86 1 0.55847 -1.79642 0.0100666 -3.51698 1.29725
87 1 0.218099 -0.0408255 1.81757 -3.35465 3.50296
88 1 2.62077 -3.25803 -3.60493 -3.54397 0.0419051
89 1 2.28977 -1.47862 -1.79743 -3.53196 0.030059
90 1 1.90765 0.351345 0.0100669 -3.50828 0.217102
91 1 1.45977 2.10339 1.81757 -3.50252 0.228935
92 1 4.026 -1.09068 -3.60493 -3.5449 0.00677335
93 1 3.65009 0.69258 -1.79743 -3.54191 0.0130083
94 1 3.28478 2.45888 0.010067 -3.5284 0.0206115
95 1 2.93905 4.18561 1.81757 -3.52652 0.0267416
96 1 5.42634 1.04681 -3.60493 -3.54208 0.00135764
97 1 5.07598 2.80827 -1.79743 -3.53717 0.00275486
98 1 4.71892 4.57165 0.0100675 -3.53518 0.0061519
99 1 4.34749 6.33971 1.81757 -3.53798 0.00609042
100 1 6.84827 3.17304 -3.60493 -3.53918 0.00115488
101 1 6.48226 4.94573 -1.79743 -3.53877 0.000969049
102 1 6.10251 6.72421 0.0100675 -3.5408 0.00229246
103 1 5.72091 8.50103 1.81757 -3.54383 0.00960241
104 1 8.24454 5.31393 -3.60493 -3.54068 0.000544472
105 1 7.87181 7.08751 -1.79743 -3.54128 0.00222894
106 1 7.50722 8.85429 0.0100676 -3.54081 0.00183726
107 1 7.159 10.615 1.81757 -3.53911 0.000963261
108 1 9.65091 7.44265 -3.60493 -3.54057 0.000648917
109 1 9.29476 9.20698 -1.79743 -3.53956 0.000166745
110 1 8.94385 10.9708 0.0100677 -3.5391 0.00058797
111 1 8.59178 12.7397 1.81757 -3.53966 0.000529175
112 1 11.0766 9.56211 -3.60493 -3.5396 8.91905e-05
113 1 10.7218 11.3292 -1.79743 -3.53974 0.000104425
114 1 10.365 13.0991 0.0100678 -3.54045 8.98295e-05
115 1 10.0078 14.8705 1.81757 -3.54105 0.000585336
116 1 12.498 11.6863 -3.60493 -3.54021 1.76738e-05
117 1 12.1417 13.4551 -1.79743 -3.54056 0.000142967
118 1 11.7881 15.2229 0.0100684 -3.54059 0.000222877
119 1 11.4398 16.989 1.81757 -3.54011 0.00010401
120 1 13.9209 13.8089 -3.60493 -3.54037 6.87392e-05
121 1 13.5697 15.5753 -1.79743 -3.54018 3.82607e-05
122 1 13.2219 17.3412 0.0100685 -3.5399 9.03545e-05
123 1 15.3499 15.9286 -3.60493 -3.54003 3.10845e-05
124 1 15.0007 17.6957 -1.79743 -3.53995 8.64068e-05
125 1 16.7769 18.0515 -3.60493 -3.54005 5.22458e-05
126 1 0.681304 -10.9154 -3.60493 -3.45651 3.168
127 1 0.373294 -9.13339 -1.79743 -3.29974 8.50582
128 1 2.01026 -8.78771 -3.60493 -3.48381 0.439006
129 1 1.53873 -7.03375 -1.79743 -3.47009 0.435558
130 1 1.11341 -5.40541 0.0100668 -3.51423 0.224431
131 1 0.861818 -3.65924 1.81757 -3.53957 0.166291
132 1 3.35459 -6.70126 -3.60493 -3.52511 0.0614061
133 1 2.9927 -4.98399 -1.79743 -3.52165 0.035153
134 1 2.62077 -3.25803 0.0100668 -3.54398 0.0419051
135 1 2.28977 -1.47862 1.81757 -3.53206 0.030059
136 1 4.77838 -4.61253 -3.60493 -3.53388 0.0120413
137 1 4.40647 -2.86039 -1.79743 -3.53726 0.00424781
138 1 4.026 -1.09068 0.0100674 -3.5449 0.00677335
139 1 3.65009 0.69258 1.81757 -3.54193 0.0130083
140 1 6.17137 -2.48431 -3.60493 -3.53901 0.0019853
141 1 5.79345 -0.717382 -1.79743 -3.54198 0.00179013
142 1 5.42634 1.04681 0.0100675 -3.54208 0.00135764
143 1 5.07598 2.80827 1.81757 -3.53717 0.00275486
144 1 7.56899 -0.356732 -3.60493 -3.54007 0.000695016
145 1 7.20751 1.4068 -1.79743 -3.53957 0.000332922
146 1 6.84827 3.17304 0.0100676 -3.53918 0.00115488
147 1 6.48226 4.94573 1.81757 -3.53877 0.000969049
148 1 8.9804 1.76844 -3.60493 -3.53932 0.000363657
149 1 8.61522 3.53947 -1.79743 -3.5398 0.000223663
150 1 8.24454 5.31393 0.0100677 -3.54068 0.000544472
151 1 7.87181 7.08751 1.81757 -3.54128 0.00222894
152 1 10.3822 3.90149 -3.60493 -3.5403 0.000207412
153 1 10.0147 5.67387 -1.79743 -3.54082 0.000647544
154 1 9.65091 7.44265 0.0100678 -3.54057 0.000648917
155 1 9.29476 9.20698 1.81757 -3.53956 0.000166745
156 1 11.7901 6.02869 -3.60493 -3.5404 0.000277663
157 1 11.4316 7.79618 -1.79743 -3.54 8.97511e-05
158 1 11.0766 9.56211 0.0100683 -3.5396 8.91905e-05
159 1 10.7218 11.3292 1.81757 -3.53974 0.000104425
160 1 13.2101 8.14992 -3.60493 -3.53991 3.12486e-05
161 1 12.8543 9.91784 -1.79743 -3.53991 2.34169e-05
162 1 12.498 11.6863 0.0100684 -3.54021 1.76738e-05
163 1 12.1417 13.4551 1.81757 -3.54056 0.000142967
164 1 14.6307 10.2726 -3.60493 -3.54015 1.57524e-05
165 1 14.275 12.0412 -1.79743 -3.54033 4.47282e-05
166 1 13.9209 13.8089 0.0100685 -3.54037 6.87392e-05
167 1 13.5697 15.5753 1.81757 -3.54018 3.82607e-05
168 1 16.0528 12.3945 -3.60493 -3.54027 2.91012e-05
169 1 15.7004 14.1619 -1.79743 -3.54018 1.81623e-05
170 1 15.3499 15.9286 0.0100687 -3.54003 3.10845e-05
171 1 15.0007 17.6957 1.81757 -3.53995 8.64068e-05
172 1 17.4787 14.5153 -3.60493 -3.5401 1.58681e-05
173 1 17.1277 16.283 -1.79743 -3.54004 3.69757e-05
174 1 16.7769 18.0515 0.0100689 -3.54005 5.22458e-05
175 1 18.9035 16.638 -3.60493 -3.54009 2.8565e-05
176 1 18.5514 18.4076 -1.79743 -3.54013 2.70983e-05
177 1 1.01471 -14.5785 -3.60493 -3.48281 0.469201
178 1 0.896435 -12.8351 -1.79743 -3.5169 0.508879
179 1 0.681304 -10.9154 0.0100666 -3.45651 3.168
180 1 0.373294 -9.13339 1.81757 -3.2994 8.50582
181 1 2.64393 -12.4738 -3.60493 -3.5431 0.123939
182 1 2.36682 -10.6648 -1.79743 -3.52896 0.0776863
183 1 2.01026 -8.78771 0.0100669 -3.48381 0.438987
184 1 1.53873 -7.03375 1.81757 -3.47059 0.435558
185 1 4.07245 -10.3021 -3.60493 -3.54597 0.0187351
186 1 3.71554 -8.48883 -1.79743 -3.54216 0.0220304
187 1 3.35459 -6.70126 0.010067 -3.52511 0.0614061
188 1 2.9927 -4.98399 1.81757 -3.52172 0.035153
189 1 5.4709 -8.15922 -3.60493 -3.54402 0.00324172
190 1 5.13138 -6.38051 -1.79743 -3.53807 0.00439532
191 1 4.77838 -4.61253 0.0100675 -3.53388 0.0120413
192 1 4.40647 -2.86039 1.81757 -3.53726 0.00424781
193 1 6.89485 -6.03731 -3.60493 -3.53998 0.000782587
194 1 6.54104 -4.25877 -1.79743 -3.53849 0.00204366
195 1 6.17137 -2.48431 0.0100675 -3.53901 0.0019853
196 1 5.79345 -0.717382 1.81757 -3.54198 0.00179013
197 1 8.29916 -3.90469 -3.60493 -3.54035 0.000206685
198 1 7.93511 -2.12678 -1.79743 -3.54027 0.000865964
199 1 7.56899 -0.356732 0.0100676 -3.54007 0.000695016
200 1 7.20751 1.4068 1.81757 -3.53957 0.000332922
201 1 9.70154 -1.77424 -3.60493 -3.54038 0.00017799
202 1 9.3417 -0.00145221 -1.79743 -3.53962 0.000263131
203 1 8.9804 1.76844 0.0100677 -3.53932 0.000363657
204 1 8.61522 3.53947 1.81757 -3.5398 0.000223663
205 1 11.1101 0.353509 -3.60493 -3.5398 0.00010361
206 1 10.7482 2.12774 -1.79743 -3.53978 0.000135486
207 1 10.3822 3.90149 0.0100682 -3.5403 0.000207412
208 1 10.0147 5.67387 1.81757 -3.54082 0.000647544
209 1 12.5154 2.48401 -3.60493 -3.5402 9.74302e-05
210 1 12.1522 4.2579 -1.79743 -3.54041 0.000252668
211 1 11.7901 6.02869 0.0100684 -3.5404 0.000277663
212 1 11.4316 7.79618 1.81757 -3.54 8.97511e-05
213 1 13.9248 4.61094 -3.60493 -3.54031 0.000131781
214 1 13.5666 6.38146 -1.79743 -3.54012 7.55731e-05
215 1 13.2101 8.14992 0.0100685 -3.53991 3.12486e-05
216 1 12.8543 9.91784 1.81757 -3.53991 2.34169e-05
217 1 15.3422 6.73373 -3.60493 -3.54007 2.49108e-05
218 1 14.9865 8.50347 -1.79743 -3.54003 1.74863e-05
219 1 14.6307 10.2726 0.0100686 -3.54015 1.57524e-05
220 1 14.275 12.0412 1.81757 -3.54033 4.47282e-05
221 1 16.7619 8.85639 -3.60493 -3.54016 1.44189e-05
222 1 16.407 10.626 -1.79743 -3.54024 2.34122e-05
223 1 16.0528 12.3945 0.0100688 -3.54027 2.91012e-05
224 1 15.7004 14.1619 1.81757 -3.54018 1.81623e-05
225 1 18.1833 10.9785 -3.60493 -3.54023 1.56293e-05
226 1 17.8304 12.7473 -1.79743 -3.54019 1.25146e-05
227 1 17.4787 14.5153 0.010069 -3.5401 1.58681e-05
228 1 17.1277 16.283 1.81757 -3.54004 3.69757e-05
229 1 19.607 13.1002 -3.60493 -3.54015 9.85026e-06
230 1 19.2553 14.8691 -1.79743 -3.5401 1.92971e-05
231 1 18.9035 16.638 0.0100692 -3.54009 2.8565e-05
232 1 18.5514 18.4076 1.81757 -3.54013 2.70983e-05
233 1 21.0303 15.2232 -3.60493 -3.54013 1.66733e-05
234 1 20.6778 16.9933 -1.79743 -3.54014 1.83384e-05
235 1 22.4511 17.3486 -3.60493 -3.54017 1.13378e-05
236 1 1.89677 -17.9472 -3.60493 -3.45558 0.648906
237 1 1.38435 -16.1817 -1.79743 -3.4369 0.702882
238 1 1.01471 -14.5785 0.0100668 -3.48281 0.469201
239 1 0.896435 -12.8351 1.81757 -3.5169 0.508879
240 1 3.26596 -15.8949 -3.60493 -3.51762 0.0824907
241 1 2.95992 -14.2027 -1.79743 -3.50881 0.0758283
242 1 2.64393 -12.4738 0.0100668 -3.5431 0.123939
243 1 2.36682 -10.6648 1.81757 -3.52899 0.0776863
244 1 4.76614 -13.8464 -3.60493 -3.53123 0.0192479
245 1 4.4268 -12.0929 -1.79743 -3.53682 0.0140678
246 1 4.07245 -10.3021 0.0100674 -3.54597 0.0187351
247 1 3.71554 -8.48883 1.81757 -3.54218 0.0220304
248 1 6.18648 -11.7212 -3.60493 -3.53919 0.00115973
249 1 5.82386 -9.94213 -1.79743 -3.54346 0.00285248
250 1 5.4709 -8.15922 0.0100675 -3.54402 0.00324172
251 1 5.13138 -6.38051 1.81757 -3.53807 0.00439532
252 1 7.5914 -9.58861 -3.60493 -3.54084 0.00033341
253 1 7.2415 -7.81452 -1.79743 -3.54071 0.0003659
254 1 6.89485 -6.03731 0.0100676 -3.53998 0.000782587
255 1 6.54104 -4.25877 1.81757 -3.53849 0.00204366
256 1 9.00981 -7.46235 -3.60493 -3.53983 0.000162072
257 1 8.65698 -5.6849 -1.79743 -3.54016 0.000234679
258 1 8.29916 -3.90469 0.0100677 -3.54035 0.000206685
259 1 7.93511 -2.12678 1.81757 -3.54027 0.000865964
260 1 10.4196 -5.33001 -3.60493 -3.5403 3.21068e-05
261 1 10.0612 -3.55122 -1.79743 -3.54063 7.21457e-05
262 1 9.70154 -1.77424 0.0100678 -3.54038 0.00017799
263 1 9.3417 -0.00145221 1.81757 -3.53962 0.000263131
264 1 11.8266 -3.198 -3.60493 -3.5404 1.88895e-05
265 1 11.4689 -1.4216 -1.79743 -3.54016 2.33372e-05
266 1 11.1101 0.353509 0.0100683 -3.5398 0.00010361
267 1 10.7482 2.12774 1.81757 -3.53978 0.000135486
268 1 13.236 -1.06794 -3.60493 -3.5401 9.61688e-06
269 1 12.8769 0.708346 -1.79743 -3.54007 2.98381e-05
270 1 12.5154 2.48401 0.0100684 -3.5402 9.74302e-05
271 1 12.1522 4.2579 1.81757 -3.54041 0.000252668
272 1 14.6443 1.0624 -3.60493 -3.54026 3.18878e-05
273 1 14.2845 2.83772 -1.79743 -3.54034 9.54311e-05
274 1 13.9248 4.61094 0.0100685 -3.54031 0.000131781
275 1 13.5666 6.38146 1.81757 -3.54012 7.55731e-05
276 1 16.0555 3.19 -3.60493 -3.54031 5.59503e-05
277 1 15.6984 4.96276 -1.79743 -3.54021 4.4512e-05
278 1 15.3422 6.73373 0.0100687 -3.54007 2.49108e-05
279 1 14.9865 8.50347 1.81757 -3.54003 1.74863e-05
280 1 17.4721 5.3144 -3.60493 -3.54018 1.4715e-05
281 1 17.1169 7.08586 -1.79743 -3.54013 1.17502e-05
282 1 16.7619 8.85639 0.0100689 -3.54016 1.44189e-05
283 1 16.407 10.626 1.81757 -3.54024 2.34122e-05
284 1 18.8913 7.43787 -3.60493 -3.5402 8.05323e-06
285 1 18.537 9.2087 -1.79743 -3.54022 1.26144e-05
286 1 18.1833 10.9785 0.0100691 -3.54023 1.56293e-05
287 1 17.8304 12.7473 1.81757 -3.54019 1.25146e-05
288 1 20.3122 9.56074 -3.60493 -3.54023 7.236e-06
289 1 19.9593 11.3308 -1.79743 -3.5402 7.37322e-06
290 1 19.607 13.1002 0.0100697 -3.54015 9.85026e-06
291 1 19.2553 14.8691 1.81757 -3.5401 1.92971e-05
292 1 21.7346 11.6833 -3.60493 -3.54018 5.04632e-06
293 1 21.3825 13.4534 -1.79743 -3.54014 1.04201e-05
294 1 21.0303 15.2232 0.0100699 -3.54013 1.66733e-05
295 1 20.6778 16.9933 1.81757 -3.54014 1.83384e-05
296 1 23.1568 13.807 -3.60493 -3.54016 9.27564e-06
297 1 22.8042 15.5777 -1.79743 -3.54016 1.1862e-05
298 1 22.4511 17.3486 0.0100701 -3.54017 1.13378e-05
299 1 24.5772 15.9323 -3.60493 -3.54018 7.78528e-06
300 1 24.2236 17.7039 -1.79743 -3.54018 7.02961e-06
301 1 25.9956 18.0591 -3.60493 -3.54019 4.30905e-06
302 1 1.89677 -17.9472 0.0100669 -3.45558 0.648906
303 1 1.38435 -16.1817 1.81757 -3.4369 0.702882
304 1 3.61039 -17.6712 -1.79743 -3.54253 0.063396
305 1 3.26596 -15.8949 0.010067 -3.51762 0.0824907
306 1 2.95992 -14.2027 1.81757 -3.50881 0.0758283
307 1 5.39287 -17.3673 -3.60493 -3.54395 0.00977866
308 1 5.08305 -15.6028 -1.79743 -3.53525 0.0085298
309 1 4.76614 -13.8464 0.0100675 -3.53123 0.0192479
310 1 4.4268 -12.0929 1.81757 -3.53682 0.0140678
311 1 6.86738 -15.2729 -3.60493 -3.53857 0.00401525
312 1 6.53739 -13.4992 -1.79743 -3.53743 0.00453416
313 1 6.18648 -11.7212 0.0100675 -3.53919 0.00115973
314 1 5.82386 -9.94213 1.81757 -3.54346 0.00285248
315 1 8.29835 -13.147 -3.60493 -3.54007 0.000569092
316 1 7.94661 -11.366 -1.79743 -3.54047 0.000244838
317 1 7.5914 -9.58861 0.0100676 -3.54084 0.00033341
318 1 7.2415 -7.81452 1.81757 -3.54071 0.0003659
319 1 9.71141 -11.0148 -3.60493 -3.54058 5.32736e-05
320 1 9.36066 -9.23792 -1.79743 -3.53999 2.08846e-05
321 1 9.00981 -7.46235 0.0100677 -3.53983 0.000162072
322 1 8.65698 -5.6849 1.81757 -3.54016 0.000234679
323 1 11.128 -8.88565 -3.60493 -3.53998 4.42908e-05
324 1 10.7753 -7.1083 -1.79743 -3.53992 6.84216e-05
325 1 10.4196 -5.33001 0.0100682 -3.5403 3.21068e-05
326 1 10.0612 -3.55122 1.81757 -3.54063 7.21457e-05
327 1 12.5403 -6.75371 -3.60493 -3.54017 1.80097e-05
328 1 12.184 -4.9756 -1.79743 -3.54033 1.35931e-05
329 1 11.8266 -3.198 0.0100684 -3.5404 1.88895e-05
330 1 11.4689 -1.4216 1.81757 -3.54016 2.33372e-05
331 1 13.9501 -4.62153 -3.60493 -3.54028 7.05829e-06
332 1 13.5934 -2.84451 -1.79743 -3.54021 3.1707e-06
333 1 13.236 -1.06794 0.0100685 -3.5401 9.61688e-06
334 1 12.8769 0.708346 1.81757 -3.54007 2.98381e-05
335 1 15.3606 -2.49054 -3.60493 -3.54017 3.38676e-06
336 1 15.0031 -0.713925 -1.79743 -3.54017 7.4148e-06
337 1 14.6443 1.0624 0.0100686 -3.54026 3.18878e-05
338 1 14.2845 2.83772 1.81757 -3.54034 9.54311e-05
339 1 16.7712 -0.360153 -3.60493 -3.54025 1.53268e-05
340 1 16.4133 1.41552 -1.79743 -3.54031 3.79755e-05
341 1 16.0555 3.19 0.0100688 -3.54031 5.59503e-05
342 1 15.6984 4.96276 1.81757 -3.54021 4.4512e-05
343 1 18.1839 1.76804 -3.60493 -3.54029 2.70712e-05
344 1 17.8277 3.54182 -1.79743 -3.54025 2.37064e-05
345 1 17.4721 5.3144 0.010069 -3.54018 1.4715e-05
346 1 17.1169 7.08586 1.81757 -3.54013 1.17502e-05
347 1 19.6004 3.89369 -3.60493 -3.54023 9.94642e-06
348 1 19.2457 5.66618 -1.79743 -3.5402 6.8258e-06
349 1 18.8913 7.43787 0.0100696 -3.5402 8.05323e-06
350 1 18.537 9.2087 1.81757 -3.54022 1.26144e-05
351 1 21.0194 6.01811 -3.60493 -3.54022 4.56868e-06
352 1 20.6656 7.78981 -1.79743 -3.54023 5.75935e-06
353 1 20.3122 9.56074 0.0100699 -3.54023 7.236e-06
354 1 19.9593 11.3308 1.81757 -3.5402 7.37322e-06
355 1 22.4399 8.14187 -3.60493 -3.54023 3.03135e-06
356 1 22.087 9.9129 -1.79743 -3.54021 3.18808e-06
357 1 21.7346 11.6833 0.01007 -3.54018 5.04632e-06
358 1 21.3825 13.4534 1.81757 -3.54014 1.04201e-05
359 1 23.8615 10.2654 -3.60493 -3.5402 2.15224e-06
360 1 23.5092 12.0363 -1.79743 -3.54018 5.10622e-06
361 1 23.1568 13.807 0.0100702 -3.54016 9.27564e-06
362 1 22.8042 15.5777 1.81757 -3.54016 1.1862e-05
363 1 25.2829 12.3897 -3.60493 -3.54018 4.91224e-06
364 1 24.9302 14.161 -1.79743 -3.54018 7.08504e-06
365 1 24.5772 15.9323 0.0100704 -3.54018 7.78528e-06
366 1 24.2236 17.7039 1.81757 -3.54018 7.02961e-06
367 1 26.703 14.5152 -3.60493 -3.54019 4.96808e-06
368 1 26.3496 16.2871 -1.79743 -3.54019 4.91837e-06
369 1 25.9956 18.0591 0.0100706 -3.54019 4.30905e-06
370 1 28.1216 16.6419 -3.60493 -3.5402 3.00053e-06
371 1 27.7673 18.4143 -1.79743 -3.5402 2.55645e-06
372 1 3.61039 -17.6712 1.81757 -3.54253 0.063396
373 1 5.39287 -17.3673 0.0100675 -3.54395 0.00977866
374 1 5.08305 -15.6028 1.81757 -3.53525 0.0085298
375 1 7.18924 -17.0406 -1.79743 -3.53989 0.00173231
376 1 6.86738 -15.2729 0.0100676 -3.53857 0.00401525
377 1 6.53739 -13.4992 1.81757 -3.53743 0.00453416
378 1 8.97613 -16.6962 -3.60493 -3.53918 0.00122983
379 1 8.64075 -14.9256 -1.79743 -3.53952 0.00174771
380 1 8.29835 -13.147 0.0100677 -3.54007 0.000569092
381 1 7.94661 -11.366 1.81757 -3.54047 0.000244838
382 1 10.4102 -14.5709 -3.60493 -3.54013 0.000436873
383 1 10.062 -12.7936 -1.79743 -3.54068 0.000112719
384 1 9.71141 -11.0148 0.0100678 -3.54058 5.32736e-05
385 1 9.36066 -9.23792 1.81757 -3.53999 2.08846e-05
386 1 11.8293 -12.4392 -3.60493 -3.54053 5.35903e-05
387 1 11.4788 -10.6626 -1.79743 -3.54034 2.61285e-05
388 1 11.128 -8.88565 0.0100683 -3.53998 4.42908e-05
389 1 10.7753 -7.1083 1.81757 -3.53992 6.84216e-05
390 1 13.2469 -10.3083 -3.60493 -3.54021 3.8823e-05
391 1 12.8945 -8.53148 -1.79743 -3.54012 3.67938e-05
392 1 12.5403 -6.75371 0.0100684 -3.54017 1.80097e-05
393 1 12.184 -4.9756 1.81757 -3.54033 1.35931e-05
394 1 14.6612 -8.17615 -3.60493 -3.54023 2.07289e-05
395 1 14.3061 -6.39893 -1.79743 -3.54027 1.04731e-05
396 1 13.9501 -4.62153 0.0100685 -3.54028 7.05829e-06
397 1 13.5934 -2.84451 1.81757 -3.54021 3.1707e-06
398 1 16.0733 -6.0439 -3.60493 -3.54027 8.64719e-06
399 1 15.7172 -4.26723 -1.79743 -3.54023 4.84458e-06
400 1 15.3606 -2.49054 0.0100687 -3.54017 3.38676e-06
401 1 15.0031 -0.713925 1.81757 -3.54017 7.4148e-06
402 1 17.4852 -3.91257 -3.60493 -3.54022 5.45825e-06
403 1 17.1285 -2.13634 -1.79743 -3.54021 6.20551e-06
404 1 16.7712 -0.360153 0.0100689 -3.54025 1.53268e-05
405 1 16.4133 1.41552 1.81757 -3.54031 3.79755e-05
406 1 18.8974 -1.78217 -3.60493 -3.54026 1.06432e-05
407 1 18.5406 -0.00676115 -1.79743 -3.54029 1.94739e-05
408 1 18.1839 1.76804 0.0100691 -3.54029 2.70712e-05
409 1 17.8277 3.54182 1.81757 -3.54025 2.37064e-05
410 1 20.3113 0.346394 -3.60493 -3.54028 1.58838e-05
411 1 19.9556 2.12041 -1.79743 -3.54026 1.48199e-05
412 1 19.6004 3.89369 0.0100697 -3.54023 9.94642e-06
413 1 19.2457 5.66618 1.81757 -3.5402 6.8258e-06
414 1 21.728 2.47289 -3.60493 -3.54024 7.98186e-06
415 1 21.3735 4.24578 -1.79743 -3.54023 5.35267e-06
416 1 21.0194 6.01811 0.0100699 -3.54022 4.56868e-06
417 1 20.6656 7.78981 1.81757 -3.54023 5.75935e-06
418 1 23.1468 4.59812 -3.60493 -3.54023 3.53338e-06
419 1 22.7931 6.37025 -1.79743 -3.54023 3.07181e-06
420 1 22.4399 8.14187 0.0100701 -3.54023 3.03135e-06
421 1 22.087 9.9129 1.81757 -3.54021 3.18808e-06
422 1 24.567 6.72265 -3.60493 -3.54023 1.63551e-06
423 1 24.2141 8.49422 -1.79743 -3.54022 1.32377e-06
424 1 23.8615 10.2654 0.0100703 -3.5402 2.15224e-06
425 1 23.5092 12.0363 1.81757 -3.54018 5.10622e-06
426 1 25.988 8.84698 -3.60493 -3.54021 1.01617e-06
427 1 25.6355 10.6184 -1.79743 -3.5402 2.45091e-06
428 1 25.2829 12.3897 0.0100705 -3.54018 4.91224e-06
429 1 24.9302 14.161 1.81757 -3.54018 7.08504e-06
430 1 27.4089 10.9718 -3.60493 -3.5402 2.71793e-06
431 1 27.0561 12.7435 -1.79743 -3.54019 4.17355e-06
432 1 26.703 14.5152 0.0100707 -3.54019 4.96808e-06
433 1 26.3496 16.2871 1.81757 -3.54019 4.91837e-06
434 1 28.8288 13.0976 -3.60493 -3.5402 3.20897e-06
435 1 28.4754 14.8697 -1.79743 -3.5402 3.2748e-06
436 1 28.1216 16.6419 0.0100709 -3.5402 3.00053e-06
437 1 27.7673 18.4143 1.81757 -3.5402 2.55645e-06
438 1 30.2474 15.2243 -3.60493 -3.5402 2.0276e-06
439 1 29.8933 16.9968 -1.79743 -3.54021 1.79003e-06
440 1 31.6649 17.3517 -3.60493 -3.54021 1.11477e-06
441 1 7.18924 -17.0406 1.81757 -3.53989 0.00173231
442 1 8.97613 -16.6962 0.0100677 -3.53918 0.00122983
443 1 8.64075 -14.9256 1.81757 -3.53952 0.00174771
444 1 11.0966 -18.1114 -3.60493 -3.53956 0.000302063
445 1 10.7546 -16.3436 -1.79743 -3.53954 0.000634189
446 1 10.4102 -14.5709 0.0100678 -3.54013 0.000436873
447 1 10.062 -12.7936 1.81757 -3.54068 0.000112719
448 1 12.5287 -15.9877 -3.60493 -3.53997 0.000212075
449 1 12.1797 -14.2147 -1.79743 -3.54033 9.886e-05
450 1 11.8293 -12.4392 0.0100684 -3.54053 5.35903e-05
451 1 11.4788 -10.6626 1.81757 -3.54034 2.61285e-05
452 1 13.9501 -13.858 -3.60493 -3.54031 3.44803e-05
453 1 13.5986 -12.0838 -1.79743 -3.54031 3.32323e-05
454 1 13.2469 -10.3083 0.0100685 -3.54021 3.8823e-05
455 1 12.8945 -8.53148 1.81757 -3.54012 3.67938e-05
456 1 15.3683 -11.7275 -3.60493 -3.54022 2.49528e-05
457 1 15.0152 -9.95246 -1.79743 -3.5402 2.88215e-05
458 1 14.6612 -8.17615 0.0100686 -3.54023 2.07289e-05
459 1 14.3061 -6.39893 1.81757 -3.54027 1.04731e-05
460 1 16.7838 -9.59595 -3.60493 -3.54022 1.53905e-05
461 1 16.4288 -7.82029 -1.79743 -3.54026 1.22517e-05
462 1 16.0733 -6.0439 0.0100688 -3.54027 8.64719e-06
463 1 15.7172 -4.26723 1.81757 -3.54023 4.84458e-06
464 1 18.1973 -7.46422 -3.60493 -3.54025 7.58503e-06
465 1 17.8414 -5.68859 -1.79743 -3.54025 6.82923e-06
466 1 17.4852 -3.91257 0.010069 -3.54022 5.45825e-06
467 1 17.1285 -2.13634 1.81757 -3.54021 6.20551e-06
468 1 19.6104 -5.33311 -3.60493 -3.54024 5.51871e-06
469 1 19.254 -3.55773 -1.79743 -3.54024 6.64359e-06
470 1 18.8974 -1.78217 0.0100696 -3.54026 1.06432e-05
471 1 18.5406 -0.00676115 1.81757 -3.54029 1.94739e-05
472 1 21.0237 -3.20294 -3.60493 -3.54025 7.88641e-06
473 1 20.6674 -1.42816 -1.79743 -3.54027 1.22603e-05
474 1 20.3113 0.346394 0.0100699 -3.54028 1.58838e-05
475 1 19.9556 2.12041 1.81757 -3.54026 1.48199e-05
476 1 22.4385 -1.07429 -3.60493 -3.54027 1.0329e-05
477 1 22.083 0.699504 -1.79743 -3.54026 1.04157e-05
478 1 21.728 2.47289 0.01007 -3.54024 7.98186e-06
479 1 21.3735 4.24578 1.81757 -3.54023 5.35267e-06
480 1 23.8553 1.05269 -3.60493 -3.54025 6.43082e-06
481 1 23.5008 2.82558 -1.79743 -3.54024 4.79474e-06
482 1 23.1468 4.59812 0.0100702 -3.54023 3.53338e-06
483 1 22.7931 6.37025 1.81757 -3.54023 3.07181e-06
484 1 25.274 3.17848 -3.60493 -3.54024 3.02909e-06
485 1 24.9203 4.95072 -1.79743 -3.54024 2.24863e-06
486 1 24.567 6.72265 0.0100704 -3.54023 1.63551e-06
487 1 24.2141 8.49422 1.81757 -3.54022 1.32377e-06
488 1 26.6939 5.3036 -3.60493 -3.54023 1.2216e-06
489 1 26.3408 7.0754 -1.79743 -3.54022 8.08504e-07
490 1 25.988 8.84698 0.0100706 -3.54021 1.01617e-06
491 1 25.6355 10.6184 1.81757 -3.5402 2.45091e-06
492 1 28.1145 7.42852 -3.60493 -3.54022 6.51309e-07
493 1 27.7617 9.20017 -1.79743 -3.54021 1.33545e-06
494 1 27.4089 10.9718 0.0100708 -3.5402 2.71793e-06
495 1 27.0561 12.7435 1.81757 -3.54019 4.17355e-06
496 1 29.535 9.55377 -3.60493 -3.54021 1.6612e-06
497 1 29.182 11.3256 -1.79743 -3.5402 2.62506e-06
498 1 28.8288 13.0976 0.010071 -3.5402 3.20897e-06
499 1 28.4754 14.8697 1.81757 -3.5402 3.2748e-06
500 1 30.9546 11.6798 -3.60493 -3.54021 2.22027e-06
501 1 30.6011 13.4519 -1.79743 -3.5402 2.21964e-06
502 1 30.2474 15.2243 0.0100711 -3.5402 2.0276e-06
503 1 29.8933 16.9968 1.81757 -3.54021 1.79003e-06
504 1 32.3732 13.8065 -3.60493 -3.54021 1.34043e-06
505 1 32.0192 15.579 -1.79743 -3.54021 1.23043e-06
506 1 31.6649 17.3517 0.0100713 -3.54021 1.11477e-06
507 1 33.7909 15.9338 -3.60493 -3.54021 8.83648e-07
508 1 33.4364 17.7066 -1.79743 -3.54022 7.68714e-07
509 1 35.2079 18.0614 -3.60493 -3.54023 4.87754e-07
510 1 11.0966 -18.1114 0.0100683 -3.53956 0.000302063
511 1 10.7546 -16.3436 1.81757 -3.53954 0.000634189
512 1 12.8757 -17.7576 -1.79743 -3.53979 0.00022673
513 1 12.5287 -15.9877 0.0100684 -3.53997 0.000212075
514 1 12.1797 -14.2147 1.81757 -3.54033 9.886e-05
515 1 14.6515 -17.4015 -3.60493 -3.54001 0.000104941
516 1 14.3013 -15.6308 -1.79743 -3.54018 6.41386e-05
517 1 13.9501 -13.858 0.0100685 -3.54031 3.44803e-05
518 1 13.5986 -12.0838 1.81757 -3.54031 3.32323e-05
519 1 16.0736 -15.2736 -3.60493 -3.54022 2.4614e-05
520 1 15.7211 -13.5012 -1.79743 -3.54024 1.9842e-05
521 1 15.3683 -11.7275 0.0100687 -3.54022 2.49528e-05
522 1 15.0152 -9.95246 1.81757 -3.5402 2.88215e-05
523 1 17.492 -13.1441 -3.60493 -3.54021 1.33786e-05
524 1 17.1382 -11.3706 -1.79743 -3.5402 1.56389e-05
525 1 16.7838 -9.59595 0.0100689 -3.54022 1.53905e-05
526 1 16.4288 -7.82029 1.81757 -3.54026 1.22517e-05
527 1 18.9081 -11.0135 -3.60493 -3.54021 7.88276e-06
528 1 18.5529 -9.23926 -1.79743 -3.54024 7.65084e-06
529 1 18.1973 -7.46422 0.0100691 -3.54025 7.58503e-06
530 1 17.8414 -5.68859 1.81757 -3.54025 6.82923e-06
531 1 20.3225 -8.88263 -3.60493 -3.54023 3.88795e-06
532 1 19.9665 -7.10812 -1.79743 -3.54024 4.76497e-06
533 1 19.6104 -5.33311 0.0100697 -3.54024 5.51871e-06
534 1 19.254 -3.55773 1.81757 -3.54024 6.64359e-06
535 1 21.7364 -6.75212 -3.60493 -3.54023 3.29235e-06
536 1 21.3801 -4.97766 -1.79743 -3.54024 5.02054e-06
537 1 21.0237 -3.20294 0.0100699 -3.54025 7.88641e-06
538 1 20.6674 -1.42816 1.81757 -3.54027 1.22603e-05
539 1 23.1505 -4.62238 -3.60493 -3.54025 4.9916e-06
540 1 22.7944 -2.84831 -1.79743 -3.54026 7.88494e-06
541 1 22.4385 -1.07429 0.0100701 -3.54027 1.0329e-05
542 1 22.083 0.699504 1.81757 -3.54026 1.04157e-05
543 1 24.5658 -2.49387 -3.60493 -3.54025 6.55711e-06
544 1 24.2103 -0.720489 -1.79743 -3.54025 7.28649e-06
545 1 23.8553 1.05269 0.0100703 -3.54025 6.43082e-06
546 1 23.5008 2.82558 1.81757 -3.54024 4.79474e-06
547 1 25.9828 -0.366717 -3.60493 -3.54024 4.74059e-06
548 1 25.6281 1.40599 -1.79743 -3.54024 3.97198e-06
549 1 25.274 3.17848 0.0100705 -3.54024 3.02909e-06
550 1 24.9203 4.95072 1.81757 -3.54024 2.24863e-06
551 1 27.4013 1.75941 -3.60493 -3.54023 2.36988e-06
552 1 27.0474 3.53159 -1.79743 -3.54023 1.77749e-06
553 1 26.6939 5.3036 0.0100707 -3.54023 1.2216e-06
554 1 26.3408 7.0754 1.81757 -3.54022 8.08504e-07
555 1 28.8209 3.88492 -3.60493 -3.54023 9.26193e-07
556 1 28.4675 5.65678 -1.79743 -3.54022 6.44847e-07
557 1 28.1145 7.42852 0.0100709 -3.54022 6.51309e-07
558 1 27.7617 9.20017 1.81757 -3.54021 1.33545e-06
559 1 30.241 6.01026 -3.60493 -3.54022 4.56847e-07
560 1 29.8879 7.78201 -1.79743 -3.54021 8.14774e-07
561 1 29.535 9.55377 0.0100711 -3.54021 1.6612e-06
562 1 29.182 11.3256 1.81757 -3.5402 2.62506e-06
563 1 31.6612 8.13582 -3.60493 -3.54021 1.05692e-06
564 1 31.3079 9.90771 -1.79743 -3.54021 1.80441e-06
565 1 30.9546 11.6798 0.0100712 -3.54021 2.22027e-06
566 1 30.6011 13.4519 1.81757 -3.5402 2.21964e-06
567 1 33.0806 10.2619 -3.60493 -3.54021 1.68512e-06
568 1 32.727 12.0341 -1.79743 -3.54021 1.55712e-06
569 1 32.3732 13.8065 0.0100713 -3.54021 1.34043e-06
570 1 32.0192 15.579 1.81757 -3.54021 1.23043e-06
571 1 34.4992 12.3887 -3.60493 -3.5402 7.89914e-07
572 1 34.1452 14.1612 -1.79743 -3.54021 7.67294e-07
573 1 33.7909 15.9338 0.0100714 -3.54021 8.83648e-07
574 1 33.4364 17.7066 1.81757 -3.54022 7.68714e-07
575 1 35.9171 14.5159 -3.60493 -3.54021 6.91017e-07
576 1 35.5626 16.2886 -1.79743 -3.54023 8.85785e-07
577 1 35.2079 18.0614 0.0100715 -3.54023 4.87754e-07
578 1 37.3343 16.6434 -3.60493 -3.54024 9.30247e-07
579 1 36.9794 18.4163 -1.79743 -3.54023 8.51141e-08