ITEM: TIMESTEP
0
ITEM: NUMBER OF ATOMS
2504
ITEM: BOX BOUNDS xy xz yz mm pp pp
-5.5498871899999997e+01 5.5498871899999997e+01 0.0000000000000000e+00
-1.8432957300000002e+01 1.8432957300000002e+01 0.0000000000000000e+00
-3.6150000000000002e+00 3.6150000000000002e+00 0.0000000000000000e+00
ITEM: ATOMS id type x y z c_eng c_csym
1 1 0.637692 16.7187 -3.61204 -3.44476 3.69856
2 1 0.285378 -18.3377 -1.80454 -3.2884 9.1973
3 1 1.01906 13.0141 -3.61204 -3.48195 0.447668
4 1 0.888284 14.7618 -1.80454 -3.50368 0.59487
5 1 0.637692 16.7187 0.0029585 -3.44476 3.69856
6 1 0.285378 -18.3377 1.81046 -3.2884 9.1973
7 1 2.60737 15.1618 -3.61204 -3.54229 0.122694
8 1 2.29681 16.9897 -1.80454 -3.52369 0.0740365
9 1 3.99119 17.3635 -3.61204 -3.54639 0.0281359
10 1 0.612023 7.47267 -3.61204 -3.47074 2.97015
11 1 0.259063 9.26846 -1.80454 -3.29742 7.4381
12 1 1.88098 9.64963 -3.61204 -3.4685 0.566626
13 1 1.3839 11.4018 -1.80454 -3.44875 0.623031
14 1 1.01906 13.0141 0.0029588 -3.48195 0.447668
15 1 0.888284 14.7618 1.81046 -3.50368 0.59487
16 1 3.25833 11.7148 -3.61204 -3.51902 0.0611907
17 1 2.94578 13.4125 -1.80454 -3.50948 0.0889953
18 1 2.60737 15.1618 0.00295893 -3.54229 0.122694
19 1 2.29681 16.9897 1.81046 -3.52369 0.0740365
20 1 4.73332 13.7943 -3.61204 -3.53231 0.0168285
21 1 4.37019 15.5599 -1.80454 -3.53827 0.00968199
22 1 3.99119 17.3635 0.00295908 -3.54639 0.0281359
23 1 6.12479 15.9402 -3.61204 -3.54065 0.00231296
24 1 5.75113 17.7185 -1.80454 -3.54458 0.0103314
25 1 7.5359 18.066 -3.61204 -3.54089 0.00159829
26 1 1.0439 3.78738 -3.61204 -3.49092 0.396959
27 1 0.883155 5.54019 -1.80454 -3.51479 0.440709
28 1 0.612023 7.47267 0.0029585 -3.47074 2.97015
29 1 0.259063 9.26846 1.81046 -3.29752 7.4381
30 1 2.60659 5.94153 -3.61204 -3.54247 0.097983
31 1 2.2862 7.76141 -1.80454 -3.52419 0.0606018
32 1 1.88098 9.64963 0.00295898 -3.4685 0.566626
33 1 1.3839 11.4018 1.81046 -3.44875 0.623031
34 1 3.98542 8.14185 -3.61204 -3.54619 0.0241663
35 1 3.60769 9.94866 -1.80454 -3.54362 0.0508523
36 1 3.25833 11.7148 0.00295913 -3.51902 0.0611907
37 1 2.94578 13.4125 1.81046 -3.50948 0.0889953
38 1 5.39364 10.2718 -3.61204 -3.5431 0.00576411
39 1 5.07017 12.0324 -1.80454 -3.53459 0.00964255
40 1 4.73332 13.7943 0.00295937 -3.53231 0.0168285
41 1 4.37019 15.5599 1.81046 -3.53827 0.00968199
42 1 6.84662 12.3823 -3.61204 -3.53853 0.00339753
43 1 6.49541 14.1588 -1.80454 -3.53823 0.00206962
44 1 6.12479 15.9402 0.00295943 -3.54065 0.00231296
45 1 5.75113 17.7185 1.81046 -3.54458 0.0103314
46 1 8.25564 14.5192 -3.61204 -3.54081 0.000381997
47 1 7.89245 16.2966 -1.80454 -3.54129 0.00196834
48 1 7.5359 18.066 0.00295959 -3.54089 0.00159829
49 1 9.66945 16.6463 -3.61204 -3.5407 0.000458058
50 1 9.32087 18.4138 -1.80454 -3.53956 0.000190224
51 1 0.615522 -1.74762 -3.61204 -3.47385 2.89014
52 1 0.264453 0.0445231 -1.80454 -3.30164 7.31341
53 1 1.90258 0.417609 -3.61204 -3.47521 0.52775
54 1 1.41694 2.16719 -1.80454 -3.45392 0.569824
55 1 1.0439 3.78738 0.0029588 -3.49092 0.396956
56 1 0.883155 5.54019 1.81046 -3.51467 0.440709
57 1 3.27858 2.49025 -3.61204 -3.52085 0.0535292
58 1 2.95462 4.19356 -1.80454 -3.51379 0.0723447
59 1 2.60659 5.94153 0.00295893 -3.54247 0.097983
60 1 2.2862 7.76141 1.81046 -3.5242 0.0606018
61 1 4.73869 4.57787 -3.61204 -3.53288 0.0143022
62 1 4.37004 6.34257 -1.80454 -3.53822 0.0078412
63 1 3.98542 8.14185 0.00295908 -3.54619 0.0241663
64 1 3.60769 9.94866 1.81046 -3.54362 0.0508523
65 1 6.12474 6.72507 -3.61204 -3.5406 0.0023568
66 1 5.74693 8.5014 -1.80454 -3.54427 0.0094289
67 1 5.39364 10.2718 0.00295942 -3.5431 0.00576411
68 1 5.07017 12.0324 1.81046 -3.53459 0.00964255
69 1 7.53164 8.85228 -3.61204 -3.54073 0.00144414
70 1 7.18638 10.6144 -1.80454 -3.53926 0.00126805
71 1 6.84662 12.3823 0.00295959 -3.53853 0.00339753
72 1 6.49541 14.1588 1.81046 -3.53823 0.00206962
73 1 8.96673 10.9694 -3.61204 -3.53912 0.000767733
74 1 8.61472 12.7412 -1.80454 -3.53984 0.000606623
75 1 8.25564 14.5192 0.00295965 -3.54081 0.000381997
76 1 7.89245 16.2966 1.81046 -3.54129 0.00196834
77 1 10.383 13.1001 -3.61204 -3.5405 7.22723e-05
78 1 10.0246 14.8744 -1.80454 -3.54108 0.000433109
79 1 9.66945 16.6463 0.0029598 -3.5407 0.000458058
80 1 9.32087 18.4138 1.81046 -3.53956 0.000190224
81 1 11.7996 15.2273 -3.61204 -3.54059 0.000130526
82 1 11.4481 16.9968 -1.80454 -3.54012 4.30201e-05
83 1 13.2246 17.3499 -3.61204 -3.53998 4.45071e-05
84 1 1.05322 -5.42158 -3.61204 -3.48806 0.409026
85 1 0.887519 -3.67608 -1.80454 -3.51671 0.4397
86 1 0.615522 -1.74762 0.0029585 -3.47385 2.89014
87 1 0.264453 0.0445231 1.81046 -3.30174 7.31341
88 1 2.61713 -3.27064 -3.61204 -3.5434 0.0947923
89 1 2.29715 -1.45918 -1.80454 -3.52718 0.0571458
90 1 1.90258 0.417609 0.00295898 -3.47521 0.527748
91 1 1.41694 2.16719 1.81046 -3.45409 0.569824
92 1 4.00518 -1.07845 -3.61204 -3.54661 0.0197837
93 1 3.63095 0.722991 -1.80454 -3.54335 0.0380299
94 1 3.27858 2.49025 0.00295913 -3.52085 0.0535292
95 1 2.95462 4.19356 1.81046 -3.51381 0.0723447
96 1 5.41245 1.05322 -3.61204 -3.54302 0.00409209
97 1 5.08237 2.81508 -1.80454 -3.53531 0.00789732
98 1 4.73869 4.57787 0.00295937 -3.53288 0.0143022
99 1 4.37004 6.34257 1.81046 -3.53822 0.0078412
100 1 6.8555 3.1686 -3.61204 -3.53881 0.00272868
101 1 6.49942 4.9448 -1.80454 -3.53841 0.00181426
102 1 6.12474 6.72507 0.00295943 -3.5406 0.0023568
103 1 5.74693 8.5014 1.81046 -3.54427 0.0094289
104 1 8.25877 5.30724 -3.61204 -3.5408 0.000417025
105 1 7.892 7.08383 -1.80454 -3.54123 0.00196735
106 1 7.53164 8.85228 0.00295959 -3.54073 0.00144414
107 1 7.18638 10.6144 1.81046 -3.53926 0.00126805
108 1 9.66815 7.43549 -3.61204 -3.54064 0.00044734
109 1 9.3158 9.20274 -1.80454 -3.5395 0.000172036
110 1 8.96673 10.9694 0.00295975 -3.53912 0.000767733
111 1 8.61472 12.7412 1.81046 -3.53984 0.000606623
112 1 11.0934 9.55648 -3.61204 -3.53962 0.000141072
113 1 10.7399 11.327 -1.80454 -3.53976 0.00015555
114 1 10.383 13.1001 0.00295987 -3.5405 7.22723e-05
115 1 10.0246 14.8744 1.81046 -3.54108 0.000433109
116 1 12.5115 11.6837 -3.61204 -3.54024 1.16179e-05
117 1 12.1549 13.456 -1.80454 -3.54057 9.03563e-05
118 1 11.7996 15.2273 0.00296018 -3.54059 0.000130526
119 1 11.4481 16.9968 1.81046 -3.54012 4.30201e-05
120 1 13.9292 13.81 -3.61204 -3.54038 3.58776e-05
121 1 13.576 15.5802 -1.80454 -3.54021 1.37673e-05
122 1 13.2246 17.3499 0.00296041 -3.53998 4.45071e-05
123 1 15.3514 15.9339 -3.61204 -3.5401 1.07172e-05
124 1 14.9989 17.7046 -1.80454 -3.54006 2.67255e-05
125 1 16.7721 18.0597 -3.61204 -3.54016 7.52643e-06
126 1 0.651649 -10.9354 -3.61204 -3.44934 3.56462
127 1 0.310098 -9.13551 -1.80454 -3.29325 8.98921
128 1 1.93276 -8.7761 -3.61204 -3.46699 0.611567
129 1 1.44016 -7.02595 -1.80454 -3.44232 0.647416
130 1 1.05322 -5.42158 0.0029588 -3.48806 0.409023
131 1 0.887519 -3.67608 1.81046 -3.5166 0.4397
132 1 3.29911 -6.70966 -3.61204 -3.52002 0.067805
133 1 2.9704 -5.00913 -1.80454 -3.51245 0.0733946
134 1 2.61713 -3.27064 0.00295893 -3.5434 0.0947923
135 1 2.29715 -1.45918 1.81046 -3.5272 0.0571458
136 1 4.75618 -4.6291 -3.61204 -3.53255 0.015721
137 1 4.38738 -2.86909 -1.80454 -3.53813 0.00661005
138 1 4.00518 -1.07845 0.00295921 -3.54661 0.0197837
139 1 3.63095 0.722991 1.81046 -3.54335 0.0380299
140 1 6.14499 -2.48907 -3.61204 -3.54009 0.00194029
141 1 5.76827 -0.715643 -1.80454 -3.54375 0.00636266
142 1 5.41245 1.05322 0.00295942 -3.54302 0.00409209
143 1 5.08237 2.81508 1.81046 -3.53531 0.00789732
144 1 7.5498 -0.362592 -3.61204 -3.54053 0.000961558
145 1 7.20064 1.40036 -1.80454 -3.5394 0.000954482
146 1 6.8555 3.1686 0.00295959 -3.53881 0.00272868
147 1 6.49942 4.9448 1.81046 -3.53841 0.00181426
148 1 8.97748 1.75706 -3.61204 -3.53918 0.000622339
149 1 8.62161 3.52947 -1.80454 -3.53988 0.0004542
150 1 8.25877 5.30724 0.00295965 -3.5408 0.000417025
151 1 7.892 7.08383 1.81046 -3.54123 0.00196735
152 1 10.3881 3.88918 -3.61204 -3.54046 7.67285e-05
153 1 10.0267 5.66375 -1.80454 -3.54101 0.000440244
154 1 9.66815 7.43549 0.0029598 -3.54064 0.00044734
155 1 9.3158 9.20274 1.81046 -3.5395 0.000172036
156 1 11.8002 6.01732 -3.61204 -3.54053 0.000135655
157 1 11.4457 7.78733 -1.80454 -3.54008 3.53887e-05
158 1 11.0934 9.55648 0.00296009 -3.53962 0.000141072
159 1 10.7399 11.327 1.81046 -3.53976 0.00015555
160 1 13.2212 8.14088 -3.61204 -3.53998 2.24484e-05
161 1 12.8671 9.91178 -1.80454 -3.53997 3.66038e-05
162 1 12.5115 11.6837 0.00296027 -3.54024 1.16179e-05
163 1 12.1549 13.456 1.81046 -3.54057 9.03563e-05
164 1 14.6398 10.2669 -3.61204 -3.54021 2.64035e-06
165 1 14.2842 12.0388 -1.80454 -3.54036 1.95772e-05
166 1 13.9292 13.81 0.00296047 -3.54038 3.58776e-05
167 1 13.576 15.5802 1.81046 -3.54021 1.37673e-05
168 1 16.058 12.3928 -3.61204 -3.5403 1.04022e-05
169 1 15.7042 14.1636 -1.80454 -3.54022 5.17465e-06
170 1 15.3514 15.9339 0.00296075 -3.5401 1.07172e-05
171 1 14.9989 17.7046 1.81046 -3.54006 2.67255e-05
172 1 17.4786 14.5175 -3.61204 -3.54016 3.23247e-06
173 1 17.1255 16.2884 -1.80454 -3.54012 8.79798e-06
174 1 16.7721 18.0597 0.00296104 -3.54016 7.52643e-06
175 1 18.8987 16.6432 -3.61204 -3.54017 3.77338e-06
176 1 18.5448 18.4148 -1.80454 -3.54021 1.5618e-06
177 1 1.02419 -14.6253 -3.61204 -3.47802 0.493932
178 1 0.8977 -12.8806 -1.80454 -3.50782 0.570483
179 1 0.651649 -10.9354 0.0029585 -3.44934 3.56462
180 1 0.310098 -9.13551 1.81046 -3.29327 8.98921
181 1 2.62395 -12.4869 -3.61204 -3.54294 0.123628
182 1 2.31981 -10.6667 -1.80454 -3.52607 0.0724616
183 1 1.93276 -8.7761 0.00295898 -3.46699 0.611566
184 1 1.44016 -7.02595 1.81046 -3.44249 0.647416
185 1 4.01884 -10.2935 -3.61204 -3.54675 0.0234828
186 1 3.6502 -8.48317 -1.80454 -3.54357 0.0414692
187 1 3.29911 -6.70966 0.00295913 -3.52002 0.067805
188 1 2.9704 -5.00913 1.81046 -3.51247 0.0733946
189 1 5.42556 -8.16019 -3.61204 -3.54372 0.00478402
190 1 5.09866 -6.39325 -1.80454 -3.53572 0.00811963
191 1 4.75618 -4.6291 0.00295937 -3.53255 0.015721
192 1 4.38738 -2.86909 1.81046 -3.53813 0.00661005
193 1 6.8692 -6.04608 -3.61204 -3.53905 0.00252848
194 1 6.5167 -4.26815 -1.80454 -3.53832 0.00210787
195 1 6.14499 -2.48907 0.00295943 -3.54009 0.00194029
196 1 5.76827 -0.715643 1.81046 -3.54375 0.00636266
197 1 8.27483 -3.90987 -3.61204 -3.5407 0.00028828
198 1 7.91062 -2.13201 -1.80454 -3.54094 0.00141055
199 1 7.5498 -0.362592 0.00295959 -3.54053 0.000961558
200 1 7.20064 1.40036 1.81046 -3.5394 0.000954482
201 1 9.68304 -1.78111 -3.61204 -3.54059 0.000281009
202 1 9.3296 -0.0113709 -1.80454 -3.53953 0.000171199
203 1 8.97748 1.75706 0.00295975 -3.53918 0.000622339
204 1 8.62161 3.52947 1.81046 -3.53988 0.0004542
205 1 11.1033 0.342323 -3.61204 -3.53968 0.000128487
206 1 10.7477 2.11493 -1.80454 -3.53977 0.00013035
207 1 10.3881 3.88918 0.00296 -3.54046 7.67285e-05
208 1 10.0267 5.66375 1.81046 -3.54101 0.000440244
209 1 12.5167 2.47138 -3.61204 -3.54024 2.10961e-05
210 1 12.158 4.24517 -1.80454 -3.54052 0.000107685
211 1 11.8002 6.01732 0.00296018 -3.54053 0.000135655
212 1 11.4457 7.78733 1.81046 -3.54008 3.53887e-05
213 1 13.9304 4.59895 -3.61204 -3.54036 4.62413e-05
214 1 13.5751 6.37035 -1.80454 -3.54019 1.56226e-05
215 1 13.2212 8.14088 0.00296041 -3.53998 2.24484e-05
216 1 12.8671 9.91178 1.81046 -3.53997 3.66038e-05
217 1 15.3491 6.72381 -3.61204 -3.54011 4.20081e-06
218 1 14.9948 8.49523 -1.80454 -3.54008 7.68155e-06
219 1 14.6398 10.2669 0.00296062 -3.54021 2.64035e-06
220 1 14.2842 12.0388 1.81046 -3.54036 1.95772e-05
221 1 16.7676 8.84954 -3.61204 -3.54019 1.03612e-06
222 1 16.4127 10.6214 -1.80454 -3.54028 4.91634e-06
223 1 16.058 12.3928 0.00296086 -3.5403 1.04022e-05
224 1 15.7042 14.1636 1.81046 -3.54022 5.17465e-06
225 1 18.1861 10.9753 -3.61204 -3.54026 3.38308e-06
226 1 17.8321 12.7466 -1.80454 -3.54023 2.28215e-06
227 1 17.4786 14.5175 0.00296117 -3.54016 3.23247e-06
228 1 17.1255 16.2884 1.81046 -3.54012 8.79798e-06
229 1 19.6058 13.1004 -3.61204 -3.54019 1.31149e-06
230 1 19.2523 14.8717 -1.80454 -3.54016 3.31082e-06
231 1 18.8987 16.6432 0.00296151 -3.54017 3.77338e-06
232 1 18.5448 18.4148 1.81046 -3.54021 1.5618e-06
233 1 21.0254 15.2262 -3.61204 -3.54019 1.97565e-06
234 1 20.6714 16.9979 -1.80454 -3.5402 1.3798e-06
235 1 22.444 17.3526 -3.61204 -3.54021 6.80651e-07
236 1 1.89938 -17.9758 -3.61204 -3.45837 0.683558
237 1 1.39476 -16.2223 -1.80454 -3.43156 0.739647
238 1 1.02419 -14.6253 0.0029588 -3.47802 0.493932
239 1 0.8977 -12.8806 1.81046 -3.50782 0.570483
240 1 3.27304 -15.9194 -3.61204 -3.51756 0.0745957
241 1 2.96075 -14.2263 -1.80454 -3.50826 0.0910964
242 1 2.62395 -12.4869 0.00295893 -3.54294 0.123628
243 1 2.31981 -10.6667 1.81046 -3.52608 0.0724616
244 1 4.75258 -13.8507 -3.61204 -3.53177 0.0187868
245 1 4.39336 -12.0903 -1.80454 -3.53795 0.00975021
246 1 4.01884 -10.2935 0.00295921 -3.54675 0.0234828
247 1 3.6502 -8.48317 1.81046 -3.54357 0.0414692
248 1 6.14943 -11.7116 -3.61204 -3.54018 0.00150908
249 1 5.77721 -9.93455 -1.80454 -3.54425 0.00685223
250 1 5.42556 -8.16019 0.00295942 -3.54372 0.00478402
251 1 5.09866 -6.39325 1.81046 -3.53572 0.00811963
252 1 7.55639 -9.5836 -3.61204 -3.54079 0.000934166
253 1 7.21064 -7.81755 -1.80454 -3.53977 0.000987201
254 1 6.8692 -6.04608 0.00295959 -3.53905 0.00252848
255 1 6.5167 -4.26815 1.81046 -3.53832 0.00210787
256 1 8.98613 -7.46363 -3.61204 -3.53933 0.000592017
257 1 8.6339 -5.68933 -1.80454 -3.53998 0.000497559
258 1 8.27483 -3.90987 0.00295965 -3.5407 0.00028828
259 1 7.91062 -2.13201 1.81046 -3.54094 0.00141055
260 1 10.3991 -5.33171 -3.61204 -3.54045 5.11033e-05
261 1 10.0403 -3.55526 -1.80454 -3.54096 0.000252773
262 1 9.68304 -1.78111 0.0029598 -3.54059 0.000281009
263 1 9.3296 -0.0113709 1.81046 -3.53953 0.000171199
264 1 11.811 -3.20216 -3.61204 -3.54053 6.538e-05
265 1 11.4567 -1.42953 -1.80454 -3.54014 1.93568e-05
266 1 11.1033 0.342323 0.00296009 -3.53968 0.000128487
267 1 10.7477 2.11493 1.81046 -3.53977 0.00013035
268 1 13.2288 -1.07601 -3.61204 -3.54004 1.92799e-05
269 1 12.8738 0.697352 -1.80454 -3.54002 3.05814e-05
270 1 12.5167 2.47138 0.00296027 -3.54024 2.10961e-05
271 1 12.158 4.24517 1.81046 -3.54052 0.000107685
272 1 14.6438 1.05231 -3.61204 -3.54024 4.60647e-06
273 1 14.287 2.8261 -1.80454 -3.54037 2.8677e-05
274 1 13.9304 4.59895 0.00296047 -3.54036 4.62413e-05
275 1 13.5751 6.37035 1.81046 -3.54019 1.56226e-05
276 1 16.0588 3.17983 -3.61204 -3.54031 1.54854e-05
277 1 15.7036 4.95219 -1.80454 -3.54023 8.21241e-06
278 1 15.3491 6.72381 0.00296075 -3.54011 4.20081e-06
279 1 14.9948 8.49523 1.81046 -3.54008 7.68155e-06
280 1 17.4767 5.3056 -3.61204 -3.54018 1.12028e-06
281 1 17.1223 7.07761 -1.80454 -3.54015 1.49021e-06
282 1 16.7676 8.84954 0.00296104 -3.54019 1.03612e-06
283 1 16.4127 10.6214 1.81046 -3.54028 4.91634e-06
284 1 18.8951 7.43147 -3.61204 -3.5402 3.66452e-07
285 1 18.5405 9.20352 -1.80454 -3.54024 1.60304e-06
286 1 18.1861 10.9753 0.00296135 -3.54026 3.38308e-06
287 1 17.8321 12.7466 1.81046 -3.54023 2.28215e-06
288 1 20.3136 9.55729 -3.61204 -3.54024 1.16382e-06
289 1 19.9596 11.329 -1.80454 -3.54022 1.04155e-06
290 1 19.6058 13.1004 0.00296178 -3.54019 1.31149e-06
291 1 19.2523 14.8717 1.81046 -3.54016 3.31082e-06
292 1 21.7329 11.6828 -3.61204 -3.5402 5.61945e-07
293 1 21.3791 13.4545 -1.80454 -3.54019 1.39454e-06
294 1 21.0254 15.2262 0.00296209 -3.54019 1.97565e-06
295 1 20.6714 16.9979 1.81046 -3.5402 1.3798e-06
296 1 23.152 13.8087 -3.61204 -3.5402 1.01857e-06
297 1 22.7981 15.5807 -1.80454 -3.5402 1.00093e-06
298 1 22.444 17.3526 0.00296235 -3.54021 6.80651e-07
299 1 24.5706 15.9352 -3.61204 -3.54021 5.61664e-07
300 1 24.2164 17.7073 -1.80454 -3.54021 4.71296e-07
301 1 25.9886 18.062 -3.61204 -3.54021 3.46001e-07
302 1 1.89938 -17.9758 0.00295898 -3.45837 0.683558
303 1 1.39476 -16.2223 1.81046 -3.43156 0.739647
304 1 3.61927 -17.6896 -1.80454 -3.54367 0.0554935
305 1 3.27304 -15.9194 0.00295913 -3.51756 0.0745957
306 1 2.96075 -14.2263 1.81046 -3.50826 0.0910964
307 1 5.4026 -17.3742 -3.61204 -3.54359 0.00676489
308 1 5.08445 -15.6114 -1.80454 -3.53477 0.00995865
309 1 4.75258 -13.8507 0.00295937 -3.53177 0.0187868
310 1 4.39336 -12.0903 1.81046 -3.53795 0.00975021
311 1 6.86112 -15.2682 -3.61204 -3.53863 0.00368788
312 1 6.51563 -13.4917 -1.80454 -3.53803 0.00274823
313 1 6.14943 -11.7116 0.00295943 -3.54018 0.00150908
314 1 5.77721 -9.93455 1.81046 -3.54425 0.00685223
315 1 8.27459 -13.134 -3.61204 -3.54064 0.000232695
316 1 7.914 -11.3552 -1.80454 -3.54103 0.00116457
317 1 7.55639 -9.5836 0.00295959 -3.54079 0.000934166
318 1 7.21064 -7.81755 1.81046 -3.53977 0.000987201
319 1 9.68594 -11.0047 -3.61204 -3.54066 0.000236381
320 1 9.33518 -9.23373 -1.80454 -3.53964 0.000120004
321 1 8.98613 -7.46363 0.00295975 -3.53933 0.000592017
322 1 8.6339 -5.68933 1.81046 -3.53998 0.000497559
323 1 11.1086 -8.88083 -3.61204 -3.53973 0.000122536
324 1 10.7557 -7.10731 -1.80454 -3.53981 0.000141878
325 1 10.3991 -5.33171 0.00296 -3.54045 5.11033e-05
326 1 10.0403 -3.55526 1.81046 -3.54096 0.000252773
327 1 12.524 -6.75134 -3.61204 -3.54022 1.28998e-05
328 1 12.1673 -4.97632 -1.80454 -3.5405 4.66715e-05
329 1 11.811 -3.20216 0.00296018 -3.54053 6.538e-05
330 1 11.4567 -1.42953 1.81046 -3.54014 1.93568e-05
331 1 13.9378 -4.62223 -3.61204 -3.54036 1.63737e-05
332 1 13.583 -2.84892 -1.80454 -3.54022 3.5016e-06
333 1 13.2288 -1.07601 0.00296041 -3.54004 1.92799e-05
334 1 12.8738 0.697352 1.81046 -3.54002 3.05814e-05
335 1 15.3546 -2.49496 -3.61204 -3.54014 2.49781e-06
336 1 14.9996 -0.721518 -1.80454 -3.54013 5.90572e-06
337 1 14.6438 1.05231 0.00296062 -3.54024 4.60647e-06
338 1 14.287 2.8261 1.81046 -3.54037 2.8677e-05
339 1 16.7704 -0.366959 -3.61204 -3.54022 1.31947e-06
340 1 16.4146 1.40665 -1.80454 -3.5403 8.0323e-06
341 1 16.0588 3.17983 0.00296086 -3.54031 1.54854e-05
342 1 15.7036 4.95219 1.81046 -3.54023 8.21241e-06
343 1 18.1863 1.76054 -3.61204 -3.54028 5.67137e-06
344 1 17.8313 3.53331 -1.80454 -3.54024 3.95803e-06
345 1 17.4767 5.3056 0.00296117 -3.54018 1.12028e-06
346 1 17.1223 7.07761 1.81046 -3.54015 1.49021e-06
347 1 19.6039 3.88689 -3.61204 -3.54021 7.19213e-07
348 1 19.2495 5.65925 -1.80454 -3.54019 2.35195e-07
349 1 18.8951 7.43147 0.00296164 -3.5402 3.66452e-07
350 1 18.5405 9.20352 1.81046 -3.54024 1.60304e-06
351 1 21.0222 6.01302 -3.61204 -3.54021 1.59637e-07
352 1 20.6678 7.78526 -1.80454 -3.54023 5.51804e-07
353 1 20.3136 9.55729 0.00296196 -3.54024 1.16382e-06
354 1 19.9596 11.329 1.81046 -3.54022 1.04155e-06
355 1 22.4407 8.13903 -3.61204 -3.54023 4.04133e-07
356 1 22.0867 9.91104 -1.80454 -3.54022 4.07455e-07
357 1 21.7329 11.6828 0.00296226 -3.5402 5.61945e-07
358 1 21.3791 13.4545 1.81046 -3.54019 1.39454e-06
359 1 23.8597 10.2649 -3.61204 -3.54021 2.19256e-07
360 1 23.5059 12.0368 -1.80454 -3.5402 5.92686e-07
361 1 23.152 13.8087 0.00296251 -3.5402 1.01857e-06
362 1 22.7981 15.5807 1.81046 -3.5402 1.00093e-06
363 1 25.2786 12.391 -3.61204 -3.54021 5.13291e-07
364 1 24.9246 14.1631 -1.80454 -3.54021 6.31413e-07
365 1 24.5706 15.9352 0.00296276 -3.54021 5.61664e-07
366 1 24.2164 17.7073 1.81046 -3.54021 4.71296e-07
367 1 26.6971 14.5175 -3.61204 -3.54021 3.94861e-07
368 1 26.3429 16.2897 -1.80454 -3.54021 3.58793e-07
369 1 25.9886 18.062 0.00296308 -3.54021 3.46001e-07
370 1 28.1151 16.6443 -3.61204 -3.54021 2.31593e-07
371 1 27.7607 18.4167 -1.80454 -3.54021 2.31954e-07
372 1 3.61927 -17.6896 1.81046 -3.54367 0.0554935
373 1 5.4026 -17.3742 0.00295942 -3.54359 0.00676489
374 1 5.08445 -15.6114 1.81046 -3.53477 0.00995865
375 1 7.19527 -17.0369 -1.80454 -3.53949 0.00143383
376 1 6.86112 -15.2682 0.00295959 -3.53863 0.00368788
377 1 6.51563 -13.4917 1.81046 -3.53803 0.00274823
378 1 8.97623 -16.6852 -3.61204 -3.53914 0.000924387
379 1 8.62912 -14.9129 -1.80454 -3.53981 0.000879861
380 1 8.27459 -13.134 0.00295965 -3.54064 0.000232695
381 1 7.914 -11.3552 1.81046 -3.54103 0.00116457
382 1 10.3963 -14.5554 -3.61204 -3.54042 8.1791e-05
383 1 10.0406 -12.7793 -1.80454 -3.54098 0.000195292
384 1 9.68594 -11.0047 0.0029598 -3.54066 0.000236381
385 1 9.33518 -9.23373 1.81046 -3.53964 0.000120004
386 1 11.8118 -12.4259 -3.61204 -3.54057 5.34193e-05
387 1 11.4596 -10.6532 -1.80454 -3.54019 1.83395e-05
388 1 11.1086 -8.88083 0.00296009 -3.53973 0.000122536
389 1 10.7557 -7.10731 1.81046 -3.53981 0.000141878
390 1 13.232 -10.2995 -3.61204 -3.54007 2.85396e-05
391 1 12.879 -8.52599 -1.80454 -3.54003 4.26724e-05
392 1 12.524 -6.75134 0.00296027 -3.54022 1.28998e-05
393 1 12.1673 -4.97632 1.81046 -3.5405 4.66715e-05
394 1 14.6488 -8.17066 -3.61204 -3.54023 6.34479e-06
395 1 14.2934 -6.39631 -1.80454 -3.54034 9.02769e-06
396 1 13.9378 -4.62223 0.00296047 -3.54036 1.63737e-05
397 1 13.583 -2.84892 1.81046 -3.54022 3.5016e-06
398 1 16.064 -6.04177 -3.61204 -3.5403 4.42102e-06
399 1 15.7092 -4.26826 -1.80454 -3.54023 1.28497e-06
400 1 15.3546 -2.49496 0.00296075 -3.54014 2.49781e-06
401 1 14.9996 -0.721518 1.81046 -3.54013 5.90572e-06
402 1 17.4806 -3.91396 -3.61204 -3.54019 4.20771e-07
403 1 17.1257 -2.14056 -1.80454 -3.54017 1.05748e-06
404 1 16.7704 -0.366959 0.00296104 -3.54022 1.31947e-06
405 1 16.4146 1.40665 1.81046 -3.5403 8.0323e-06
406 1 18.8969 -1.78606 -3.61204 -3.54022 6.71365e-07
407 1 18.5416 -0.0126576 -1.80454 -3.54026 2.82505e-06
408 1 18.1863 1.76054 0.00296135 -3.54028 5.67137e-06
409 1 17.8313 3.53331 1.81046 -3.54024 3.95803e-06
410 1 20.3133 0.341437 -3.61204 -3.54025 2.44983e-06
411 1 19.9585 2.11431 -1.80454 -3.54024 2.13038e-06
412 1 19.6039 3.88689 0.00296178 -3.54021 7.19213e-07
413 1 19.2495 5.65925 1.81046 -3.54019 2.35195e-07
414 1 21.7309 2.46813 -3.61204 -3.54022 6.72088e-07
415 1 21.3765 4.24063 -1.80454 -3.54021 2.06937e-07
416 1 21.0222 6.01302 0.00296209 -3.54021 1.59637e-07
417 1 20.6678 7.78526 1.81046 -3.54023 5.51804e-07
418 1 23.1491 4.59449 -3.61204 -3.54022 1.75429e-07
419 1 22.7948 6.36683 -1.80454 -3.54023 2.45431e-07
420 1 22.4407 8.13903 0.00296235 -3.54023 4.04133e-07
421 1 22.0867 9.91104 1.81046 -3.54022 4.07455e-07
422 1 24.5676 6.72069 -3.61204 -3.54023 1.79807e-07
423 1 24.2136 8.49286 -1.80454 -3.54022 1.57883e-07
424 1 23.8597 10.2649 0.00296265 -3.54021 2.19256e-07
425 1 23.5059 12.0368 1.81046 -3.5402 5.92686e-07
426 1 25.9864 8.8468 -3.61204 -3.54022 9.53157e-08
427 1 25.6325 10.6189 -1.80454 -3.54021 2.56395e-07
428 1 25.2786 12.391 0.00296296 -3.54021 5.13291e-07
429 1 24.9246 14.1631 1.81046 -3.54021 6.31413e-07
430 1 27.4051 10.9731 -3.61204 -3.54021 2.73983e-07
431 1 27.0512 12.7452 -1.80454 -3.54021 3.87235e-07
432 1 26.6971 14.5175 0.00296325 -3.54021 3.94861e-07
433 1 26.3429 16.2897 1.81046 -3.54021 3.58793e-07
434 1 28.8236 13.0996 -3.61204 -3.54021 2.76042e-07
435 1 28.4694 14.8719 -1.80454 -3.54021 2.47531e-07
436 1 28.1151 16.6443 0.00296354 -3.54021 2.31593e-07
437 1 27.7607 18.4167 1.81046 -3.54021 2.31954e-07
438 1 30.2416 15.2264 -3.61204 -3.54021 1.41441e-07
439 1 29.8873 16.9988 -1.80454 -3.54021 1.48238e-07
440 1 31.6594 17.3534 -3.61204 -3.54022 1.17109e-07
441 1 7.19527 -17.0369 1.81046 -3.53949 0.00143383
442 1 8.97623 -16.6852 0.00295975 -3.53914 0.000924387
443 1 8.62912 -14.9129 1.81046 -3.53981 0.000879861
444 1 11.0993 -18.1 -3.61204 -3.53962 0.000195263
445 1 10.7496 -16.3293 -1.80454 -3.53971 0.000269957
446 1 10.3963 -14.5554 0.00295987 -3.54042 8.1791e-05
447 1 10.0406 -12.7793 1.81046 -3.54098 0.000195292
448 1 12.5206 -15.973 -3.61204 -3.54017 2.94526e-05
449 1 12.1661 -14.1994 -1.80454 -3.5405 2.66951e-05
450 1 11.8118 -12.4259 0.00296018 -3.54057 5.34193e-05
451 1 11.4596 -10.6532 1.81046 -3.54019 1.83395e-05
452 1 13.9378 -13.8446 -3.61204 -3.54037 8.22022e-06
453 1 13.5845 -12.0721 -1.80454 -3.54024 5.2809e-06
454 1 13.232 -10.2995 0.00296041 -3.54007 2.85396e-05
455 1 12.879 -8.52599 1.81046 -3.54003 4.26724e-05
456 1 15.3568 -11.7175 -3.61204 -3.54015 7.523e-06
457 1 15.0032 -9.94448 -1.80454 -3.54013 1.43725e-05
458 1 14.6488 -8.17066 0.00296062 -3.54023 6.34479e-06
459 1 14.2934 -6.39631 1.81046 -3.54034 9.02769e-06
460 1 16.7741 -9.58912 -3.61204 -3.54021 3.21255e-06
461 1 16.4191 -7.81551 -1.80454 -3.54028 2.52771e-06
462 1 16.064 -6.04177 0.00296086 -3.5403 4.42102e-06
463 1 15.7092 -4.26826 1.81046 -3.54023 1.28497e-06
464 1 18.1902 -7.46058 -3.61204 -3.54026 1.42472e-06
465 1 17.8353 -5.68727 -1.80454 -3.54024 8.79207e-07
466 1 17.4806 -3.91396 0.00296117 -3.54019 4.20771e-07
467 1 17.1257 -2.14056 1.81046 -3.54017 1.05748e-06
468 1 19.6068 -5.33262 -3.61204 -3.54021 3.38723e-07
469 1 19.2519 -3.55941 -1.80454 -3.5402 4.00637e-07
470 1 18.8969 -1.78606 0.00296164 -3.54022 6.71365e-07
471 1 18.5416 -0.0126576 1.81046 -3.54026 2.82505e-06
472 1 21.0234 -3.20481 -3.61204 -3.54022 5.00785e-07
473 1 20.6684 -1.43165 -1.80454 -3.54024 1.32068e-06
474 1 20.3133 0.341437 0.00296196 -3.54025 2.44983e-06
475 1 19.9585 2.11431 1.81046 -3.54024 2.13038e-06
476 1 22.4403 -1.07735 -3.61204 -3.54024 1.24812e-06
477 1 22.0855 0.695465 -1.80454 -3.54024 1.26929e-06
478 1 21.7309 2.46813 0.00296226 -3.54022 6.72088e-07
479 1 21.3765 4.24063 1.81046 -3.54021 2.06937e-07
480 1 23.8578 1.04952 -3.61204 -3.54023 5.79018e-07
481 1 23.5034 2.82205 -1.80454 -3.54022 2.95263e-07
482 1 23.1491 4.59449 0.00296251 -3.54022 1.75429e-07
483 1 22.7948 6.36683 1.81046 -3.54023 2.45431e-07
484 1 25.276 3.17605 -3.61204 -3.54022 1.95862e-07
485 1 24.9217 4.94841 -1.80454 -3.54022 1.70485e-07
486 1 24.5676 6.72069 0.00296276 -3.54023 1.79807e-07
487 1 24.2136 8.49286 1.81046 -3.54022 1.57883e-07
488 1 26.6944 5.30241 -3.61204 -3.54022 1.15397e-07
489 1 26.3403 7.07464 -1.80454 -3.54022 8.65731e-08
490 1 25.9864 8.8468 0.00296308 -3.54022 9.53157e-08
491 1 25.6325 10.6189 1.81046 -3.54021 2.56395e-07
492 1 28.113 7.4287 -3.61204 -3.54022 5.6738e-08
493 1 27.7591 9.20088 -1.80454 -3.54021 1.24593e-07
494 1 27.4051 10.9731 0.00296339 -3.54021 2.73983e-07
495 1 27.0512 12.7452 1.81046 -3.54021 3.87235e-07
496 1 29.5317 9.55508 -3.61204 -3.54021 1.63303e-07
497 1 29.1777 11.3273 -1.80454 -3.54021 2.58489e-07
498 1 28.8236 13.0996 0.00296367 -3.54021 2.76042e-07
499 1 28.4694 14.8719 1.81046 -3.54021 2.47531e-07
500 1 30.9501 11.6817 -3.61204 -3.54022 2.14489e-07
501 1 30.5959 13.454 -1.80454 -3.54021 1.68969e-07
502 1 30.2416 15.2264 0.00296394 -3.54021 1.41441e-07
503 1 29.8873 16.9988 1.81046 -3.54021 1.48238e-07
504 1 32.3681 13.8085 -3.61204 -3.54021 7.04812e-08
505 1 32.0138 15.581 -1.80454 -3.54021 8.38663e-08
506 1 31.6594 17.3534 0.00296415 -3.54022 1.17109e-07
507 1 33.786 15.9355 -3.61204 -3.54022 9.84078e-08
508 1 33.4315 17.708 -1.80454 -3.54022 1.29327e-07
509 1 35.2036 18.0626 -3.61204 -3.54023 1.32178e-07
510 1 11.0993 -18.1 0.00296009 -3.53962 0.000195263
511 1 10.7496 -16.3293 1.81046 -3.53971 0.000269957
512 1 12.8734 -17.7453 -1.80454 -3.53994 8.4131e-05
513 1 12.5206 -15.973 0.00296027 -3.54017 2.94526e-05
514 1 12.1661 -14.1994 1.81046 -3.5405 2.66951e-05
515 1 14.6459 -17.3898 -3.61204 -3.54017 1.54266e-05
516 1 14.292 -15.6173 -1.80454 -3.54032 3.06914e-06
517 1 13.9378 -13.8446 0.00296047 -3.54037 8.22022e-06
518 1 13.5845 -12.0721 1.81046 -3.54024 5.2809e-06
519 1 16.0641 -15.2621 -3.61204 -3.54029 8.33147e-07
520 1 15.7103 -13.4899 -1.80454 -3.54024 1.10503e-06
521 1 15.3568 -11.7175 0.00296075 -3.54015 7.523e-06
522 1 15.0032 -9.94448 1.81046 -3.54013 1.43725e-05
523 1 17.4826 -13.1349 -3.61204 -3.54019 2.37043e-06
524 1 17.1285 -11.3623 -1.80454 -3.54017 4.8481e-06
525 1 16.7741 -9.58912 0.00296104 -3.54021 3.21255e-06
526 1 16.4191 -7.81551 1.81046 -3.54028 2.52771e-06
527 1 18.9 -11.0069 -3.61204 -3.54021 1.46521e-06
528 1 18.5452 -9.23385 -1.80454 -3.54024 9.10182e-07
529 1 18.1902 -7.46058 0.00296135 -3.54026 1.42472e-06
530 1 17.8353 -5.68727 1.81046 -3.54024 8.79207e-07
531 1 20.3166 -8.87873 -3.61204 -3.54024 4.60237e-07
532 1 19.9617 -7.10572 -1.80454 -3.54023 4.9309e-07
533 1 19.6068 -5.33262 0.00296178 -3.54021 3.38723e-07
534 1 19.2519 -3.55941 1.81046 -3.5402 4.00637e-07
535 1 21.7334 -6.75086 -3.61204 -3.54022 2.21407e-07
536 1 21.3784 -4.97789 -1.80454 -3.54022 2.81678e-07
537 1 21.0234 -3.20481 0.00296209 -3.54022 5.00785e-07
538 1 20.6684 -1.43165 1.81046 -3.54024 1.32068e-06
539 1 23.1502 -4.62318 -3.61204 -3.54022 3.28943e-07
540 1 22.7952 -2.85026 -1.80454 -3.54023 7.24745e-07
541 1 22.4403 -1.07735 0.00296235 -3.54024 1.24812e-06
542 1 22.0855 0.695465 1.81046 -3.54024 1.26929e-06
543 1 24.5672 -2.4958 -3.61204 -3.54023 6.82434e-07
544 1 24.2125 -0.7231 -1.80454 -3.54023 7.89912e-07
545 1 23.8578 1.04952 0.00296265 -3.54023 5.79018e-07
546 1 23.5034 2.82205 1.81046 -3.54022 2.95263e-07
547 1 25.9848 -0.368857 -3.61204 -3.54023 4.39062e-07
548 1 25.6303 1.40362 -1.80454 -3.54022 2.98067e-07
549 1 25.276 3.17605 0.00296296 -3.54022 1.95862e-07
550 1 24.9217 4.94841 1.81046 -3.54022 1.70485e-07
551 1 27.4029 1.75778 -3.61204 -3.54022 1.70154e-07
552 1 27.0486 3.53012 -1.80454 -3.54022 1.33951e-07
553 1 26.6944 5.30241 0.00296325 -3.54022 1.15397e-07
554 1 26.3403 7.07464 1.81046 -3.54022 8.65731e-08
555 1 28.8212 3.88425 -3.61204 -3.54022 8.07813e-08
556 1 28.4671 5.6565 -1.80454 -3.54022 6.53804e-08
557 1 28.113 7.4287 0.00296354 -3.54022 5.6738e-08
558 1 27.7591 9.20088 1.81046 -3.54021 1.24593e-07
559 1 30.2397 6.01066 -3.61204 -3.54022 3.96978e-08
560 1 29.8857 7.78287 -1.80454 -3.54021 6.50329e-08
561 1 29.5317 9.55508 0.00296382 -3.54021 1.63303e-07
562 1 29.1777 11.3273 1.81046 -3.54021 2.58489e-07
563 1 31.6583 8.13713 -3.61204 -3.54022 1.02126e-07
564 1 31.3042 9.90938 -1.80454 -3.54022 2.00813e-07
565 1 30.9501 11.6817 0.00296404 -3.54022 2.14489e-07
566 1 30.5959 13.454 1.81046 -3.54021 1.68969e-07
567 1 33.0766 10.2638 -3.61204 -3.54022 2.05784e-07
568 1 32.7224 12.0361 -1.80454 -3.54022 1.20494e-07
569 1 32.3681 13.8085 0.00296422 -3.54021 7.04812e-08
570 1 32.0138 15.581 1.81046 -3.54021 8.38663e-08
571 1 34.4946 12.3906 -3.61204 -3.54021 1.6871e-08
572 1 34.1403 14.1631 -1.80454 -3.54021 2.93078e-08
573 1 33.786 15.9355 0.00296437 -3.54022 9.84078e-08
574 1 33.4315 17.708 1.81046 -3.54022 1.29327e-07
575 1 35.9125 14.5176 -3.61204 -3.54021 8.65984e-08
576 1 35.5581 16.29 -1.80454 -3.54023 2.23118e-07