ITEM: TIMESTEP
0
ITEM: NUMBER OF ATOMS
2504
ITEM: BOX BOUNDS xy xz yz mm pp pp
-5.5498871899999997e+01 5.5498871899999997e+01 0.0000000000000000e+00
-1.8432957300000002e+01 1.8432957300000002e+01 0.0000000000000000e+00
-3.6150000000000002e+00 3.6150000000000002e+00 0.0000000000000000e+00
ITEM: ATOMS id type x y z c_eng c_csym
1 1 0.628404 16.794 -3.59486 -3.43676 3.46524
2 1 0.294723 -18.2499 -1.78736 -3.27781 8.96212
3 1 0.966403 13.0689 -3.59486 -3.50646 0.281498
4 1 0.830612 14.8311 -1.78736 -3.50399 0.579939
5 1 0.628404 16.794 0.0201363 -3.43676 3.46524
6 1 0.294723 -18.2499 1.82764 -3.27781 8.96212
7 1 2.55952 15.1895 -3.59486 -3.5395 0.117529
8 1 2.27701 17.0349 -1.78736 -3.51731 0.0901786
9 1 3.9604 17.3864 -3.59486 -3.54317 0.0315865
10 1 0.453857 7.37685 -3.59486 -3.52136 0.274946
11 1 0.115782 9.10544 -1.78736 -3.44055 0.908791
12 1 1.76793 9.57965 -3.59486 -3.52012 0.11021
13 1 1.29578 11.3531 -1.78736 -3.52127 0.244808
14 1 0.966403 13.0689 0.0201364 -3.50646 0.281498
15 1 0.830612 14.8311 1.82764 -3.50399 0.579939
16 1 3.15584 11.6859 -3.59486 -3.52952 0.0272144
17 1 2.85691 13.4076 -1.78736 -3.51952 0.0578036
18 1 2.55952 15.1895 0.0201364 -3.5395 0.117529
19 1 2.27701 17.0349 1.82764 -3.51731 0.0901786
20 1 4.65434 13.7792 -3.59486 -3.53389 0.0127582
21 1 4.31657 15.5582 -1.78736 -3.53754 0.0195377
22 1 3.9604 17.3864 0.0201364 -3.54317 0.0315865
23 1 6.07135 15.93 -3.59486 -3.54122 0.00416818
24 1 5.71263 17.7212 -1.78736 -3.54509 0.017521
25 1 7.50164 18.0545 -3.59486 -3.54192 0.00495146
26 1 1.13537 3.78291 -3.59486 -3.54504 0.0379314
27 1 0.795739 5.57968 -1.78736 -3.54634 0.0122468
28 1 0.453857 7.37685 0.0201363 -3.52136 0.274794
29 1 0.115782 9.10544 1.82764 -3.44153 0.908791
30 1 2.55421 5.94697 -3.59486 -3.54072 0.00865531
31 1 2.2049 7.73826 -1.78736 -3.52482 0.0369805
32 1 1.76793 9.57965 0.0201364 -3.52012 0.11021
33 1 1.29578 11.3531 1.82764 -3.52132 0.244808
34 1 3.92113 8.1345 -3.59486 -3.54179 0.0113038
35 1 3.51905 9.92846 -1.78736 -3.54288 0.0461114
36 1 3.15584 11.6859 0.0201364 -3.52952 0.0272144
37 1 2.85691 13.4076 1.82764 -3.51952 0.0578036
38 1 5.31812 10.2682 -3.59486 -3.54103 0.00724696
39 1 4.98398 12.0211 -1.78736 -3.53428 0.00512685
40 1 4.65434 13.7792 0.0201373 -3.53389 0.0127582
41 1 4.31657 15.5582 1.82764 -3.53754 0.0195377
42 1 6.77761 12.3766 -3.59486 -3.5376 0.00241164
43 1 6.43068 14.1463 -1.78736 -3.5379 0.00209092
44 1 6.07135 15.93 0.0201373 -3.54122 0.00416818
45 1 5.71263 17.7212 1.82764 -3.54509 0.017521
46 1 8.2031 14.5094 -3.59486 -3.54047 0.000552035
47 1 7.8463 16.2837 -1.78736 -3.54167 0.00340631
48 1 7.50164 18.0545 0.0201373 -3.54192 0.00495146
49 1 9.63532 16.6305 -3.59486 -3.54079 0.00130533
50 1 9.29941 18.3924 -1.78736 -3.53986 0.000841703
51 1 0.477647 -1.86555 -3.59486 -3.52428 0.137192
52 1 0.152432 -0.161736 -1.78736 -3.48097 0.325874
53 1 1.91482 0.257472 -3.59486 -3.5338 0.0178052
54 1 1.52045 2.01301 -1.78736 -3.53737 0.0139208
55 1 1.13537 3.78291 0.0201364 -3.54504 0.0377794
56 1 0.795739 5.57968 1.82764 -3.54529 0.0122468
57 1 3.29356 2.41444 -3.59486 -3.5382 0.00126691
58 1 2.917 4.17436 -1.78736 -3.5402 0.00253881
59 1 2.55421 5.94697 0.0201364 -3.54072 0.00865531
60 1 2.2049 7.73826 1.82764 -3.52499 0.0369805
61 1 4.69091 4.56283 -3.59486 -3.53855 0.000825072
62 1 4.31555 6.33566 -1.78736 -3.5377 0.00426999
63 1 3.92113 8.1345 0.0201364 -3.54179 0.0113038
64 1 3.51905 9.92846 1.82764 -3.54288 0.0461114
65 1 6.07101 6.723 -3.59486 -3.54103 0.00247745
66 1 5.68406 8.5005 -1.78736 -3.54317 0.0100438
67 1 5.31812 10.2682 0.0201373 -3.54103 0.00724696
68 1 4.98398 12.0211 1.82764 -3.53428 0.00512685
69 1 7.47262 8.85714 -3.59486 -3.54086 0.00252534
70 1 7.12023 10.6158 -1.78736 -3.5388 0.000747622
71 1 6.77761 12.3766 0.0201373 -3.5376 0.00241164
72 1 6.43068 14.1463 1.82764 -3.5379 0.00209092
73 1 8.91144 10.9729 -3.59486 -3.539 0.000405482
74 1 8.55929 12.7377 -1.78736 -3.53932 0.000448958
75 1 8.2031 14.5094 0.0201373 -3.54047 0.000552035
76 1 7.8463 16.2837 1.82764 -3.54167 0.00340631
77 1 10.3394 13.0978 -3.59486 -3.54031 0.000139695
78 1 9.98399 14.865 -1.78736 -3.54092 0.000862313
79 1 9.63532 16.6305 0.0201374 -3.54079 0.00130533
80 1 9.29941 18.3924 1.82764 -3.53986 0.000841703
81 1 11.7717 15.2168 -3.59486 -3.5405 0.000401906
82 1 11.4281 16.9778 -1.78736 -3.53999 0.0002618
83 1 13.2181 17.3288 -3.59486 -3.53969 0.000197058
84 1 1.19869 -5.38249 -3.59486 -3.54132 0.0881671
85 1 0.82541 -3.63538 -1.78736 -3.55082 0.0426749
86 1 0.477647 -1.86555 0.0201363 -3.52428 0.13704
87 1 0.152432 -0.161736 1.82764 -3.4809 0.325874
88 1 2.62592 -3.24016 -3.59486 -3.54177 0.0088563
89 1 2.27932 -1.50617 -1.78736 -3.53446 0.011299
90 1 1.91482 0.257472 0.0201364 -3.5338 0.0177292
91 1 1.52045 2.01301 1.82764 -3.53732 0.0139208
92 1 4.0555 -1.10799 -3.59486 -3.54004 0.00270478
93 1 3.67721 0.649497 -1.78736 -3.53995 0.000446525
94 1 3.29356 2.41444 0.0201364 -3.5382 0.00126691
95 1 2.917 4.17436 1.82764 -3.54037 0.00253881
96 1 5.44602 1.03773 -3.59486 -3.54089 0.000381337
97 1 5.06693 2.79862 -1.78736 -3.53993 0.000125842
98 1 4.69091 4.56283 0.0201373 -3.53855 0.000825072
99 1 4.31555 6.33566 1.82764 -3.5377 0.00426999
100 1 6.83803 3.17933 -3.59486 -3.53961 0.00030384
101 1 6.45796 4.94704 -1.78736 -3.53919 0.000451636
102 1 6.07101 6.723 0.0201373 -3.54103 0.00247745
103 1 5.68406 8.5005 1.82764 -3.54317 0.0100438
104 1 8.22438 5.3234 -3.59486 -3.54042 0.000868734
105 1 7.8432 7.09273 -1.78736 -3.54129 0.00271755
106 1 7.47262 8.85714 0.0201373 -3.54086 0.00252534
107 1 7.12023 10.6158 1.82764 -3.5388 0.000747622
108 1 9.62649 7.45278 -3.59486 -3.5404 0.00102655
109 1 9.26495 9.21299 -1.78736 -3.53956 0.000269351
110 1 8.91144 10.9729 0.0201373 -3.539 0.000405482
111 1 8.55929 12.7377 1.82764 -3.53932 0.000448958
112 1 11.0526 9.57007 -3.59486 -3.53948 7.74235e-05
113 1 10.696 11.3324 -1.78736 -3.53964 6.65677e-05
114 1 10.3394 13.0978 0.0201374 -3.54031 0.000139695
115 1 9.98399 14.865 1.82764 -3.54092 0.000862313
116 1 12.4788 11.6901 -3.59486 -3.54009 5.3053e-05
117 1 12.123 13.4539 -1.78736 -3.54047 0.000246722
118 1 11.7717 15.2168 0.0201383 -3.5405 0.000401906
119 1 11.4281 16.9778 1.82764 -3.53999 0.0002618
120 1 13.909 13.8073 -3.59486 -3.54027 0.000137677
121 1 13.5609 15.5683 -1.78736 -3.54006 9.54346e-05
122 1 13.2181 17.3288 0.0201383 -3.53969 0.000197058
123 1 15.3478 15.9211 -3.59486 -3.53987 8.08369e-05
124 1 15.0032 17.6832 -1.78736 -3.53972 0.000235559
125 1 16.7838 18.0398 -3.59486 -3.53985 0.000187803
126 1 0.723314 -10.887 -3.59486 -3.46541 2.68153
127 1 0.462821 -9.13039 -1.78736 -3.30084 8.04556
128 1 2.12005 -8.80416 -3.59486 -3.49855 0.282807
129 1 1.67836 -7.0448 -1.78736 -3.49657 0.265134
130 1 1.19869 -5.38249 0.0201364 -3.54132 0.0880151
131 1 0.82541 -3.63538 1.82764 -3.5499 0.0426749
132 1 3.43319 -6.68936 -3.59486 -3.52968 0.0609174
133 1 3.02431 -4.94837 -1.78736 -3.53072 0.03308
134 1 2.62592 -3.24016 0.0201364 -3.54177 0.0088563
135 1 2.27932 -1.50617 1.82764 -3.53472 0.011299
136 1 4.80982 -4.58905 -3.59486 -3.53543 0.0156218
137 1 4.4335 -2.84807 -1.78736 -3.53509 0.00722414
138 1 4.0555 -1.10799 0.0201373 -3.54004 0.00270478
139 1 3.67721 0.649497 1.82764 -3.54004 0.000446525
140 1 6.20874 -2.47758 -3.59486 -3.53728 0.0050052
141 1 5.82913 -0.719846 -1.78736 -3.5392 0.00182257
142 1 5.44602 1.03773 0.0201373 -3.54089 0.000381337
143 1 5.06693 2.79862 1.82764 -3.53993 0.000125842
144 1 7.59618 -0.348431 -3.59486 -3.53927 0.00165336
145 1 7.21725 1.41592 -1.78736 -3.53971 0.00072172
146 1 6.83803 3.17933 0.0201373 -3.53961 0.00030384
147 1 6.45796 4.94704 1.82764 -3.53919 0.000451636
148 1 8.98454 1.78456 -3.59486 -3.53938 0.000721921
149 1 8.60616 3.55364 -1.78736 -3.53958 0.000440657
150 1 8.22438 5.3234 0.0201373 -3.54042 0.000868734
151 1 7.8432 7.09273 1.82764 -3.54129 0.00271755
152 1 10.3738 3.91893 -3.59486 -3.53999 0.000665082
153 1 9.99772 5.68819 -1.78736 -3.54048 0.00109425
154 1 9.62649 7.45278 0.0201374 -3.5404 0.00102655
155 1 9.26495 9.21299 1.82764 -3.53956 0.000269351
156 1 11.7757 6.04481 -3.59486 -3.54015 0.000617297
157 1 11.4117 7.80871 -1.78736 -3.5398 0.000266397
158 1 11.0526 9.57007 0.0201382 -3.53948 7.74235e-05
159 1 10.696 11.3324 1.82764 -3.53964 6.65677e-05
160 1 13.1945 8.16273 -3.59486 -3.53974 0.000123879
161 1 12.8362 9.92643 -1.78736 -3.53976 5.16283e-05
162 1 12.4788 11.6901 0.0201383 -3.54009 5.3053e-05
163 1 12.123 13.4539 1.82764 -3.54047 0.000246722
164 1 14.6178 10.2806 -3.59486 -3.54002 7.4301e-05
165 1 14.262 12.0447 -1.78736 -3.54021 0.00010725
166 1 13.909 13.8073 0.0201383 -3.54027 0.000137677
167 1 13.5609 15.5683 1.82764 -3.54006 9.54346e-05
168 1 16.0455 12.397 -3.59486 -3.54017 7.7783e-05
169 1 15.6949 14.1596 -1.78736 -3.54007 5.16639e-05
170 1 15.3478 15.9211 0.0201383 -3.53987 8.08369e-05
171 1 15.0032 17.6832 1.82764 -3.53972 0.000235559
172 1 17.4787 14.5121 -3.59486 -3.53998 5.11294e-05
173 1 17.1309 16.2754 -1.78736 -3.53987 0.000112052
174 1 16.7838 18.0398 0.0201384 -3.53985 0.000187803
175 1 18.9104 16.6308 -3.59486 -3.53994 0.000104247
176 1 18.5609 18.3974 -1.78736 -3.53998 0.000118135
177 1 1.00129 -14.5121 -3.59486 -3.4884 0.453115
178 1 0.894642 -12.7707 -1.78736 -3.5274 0.438635
179 1 0.723314 -10.887 0.0201363 -3.46541 2.68153
180 1 0.462821 -9.13039 1.82764 -3.29853 8.04556
181 1 2.67224 -12.4553 -3.59486 -3.54235 0.127567
182 1 2.43342 -10.662 -1.78736 -3.5322 0.0939555
183 1 2.12005 -8.80416 0.0201364 -3.49855 0.282731
184 1 1.67836 -7.0448 1.82764 -3.49711 0.265134
185 1 4.14841 -10.3144 -3.59486 -3.54327 0.0248856
186 1 3.80809 -8.49684 -1.78736 -3.53921 0.0109221
187 1 3.43319 -6.68936 0.0201364 -3.52968 0.0609174
188 1 3.02431 -4.94837 1.82764 -3.53087 0.03308
189 1 5.53514 -8.15785 -3.59486 -3.54346 0.00282218
190 1 5.17773 -6.36246 -1.78736 -3.54035 0.0059132
191 1 4.80982 -4.58905 0.0201373 -3.53543 0.0156218
192 1 4.4335 -2.84807 1.82764 -3.53509 0.00722414
193 1 6.93118 -6.0249 -3.59486 -3.54116 0.000433068
194 1 6.57551 -4.24547 -1.78736 -3.53864 0.00281708
195 1 6.20874 -2.47758 0.0201373 -3.53728 0.0050052
196 1 5.82913 -0.719846 1.82764 -3.5392 0.00182257
197 1 8.33363 -3.89735 -3.59486 -3.53981 0.000476335
198 1 7.96982 -2.11939 -1.78736 -3.5392 0.00149367
199 1 7.59618 -0.348431 0.0201373 -3.53927 0.00165336
200 1 7.21725 1.41592 1.82764 -3.53971 0.00072172
201 1 9.72775 -1.76452 -3.59486 -3.53994 0.000352726
202 1 9.35884 0.0125992 -1.78736 -3.53959 0.000743283
203 1 8.98454 1.78456 0.0201373 -3.53938 0.000721921
204 1 8.60616 3.55364 1.82764 -3.53958 0.000440657
205 1 11.1198 0.369356 -3.59486 -3.53984 0.000268355
206 1 10.7489 2.14589 -1.78736 -3.53969 0.000459452
207 1 10.3738 3.91893 0.0201382 -3.53999 0.000665082
208 1 9.99772 5.68819 1.82764 -3.54048 0.00109425
209 1 12.5136 2.5019 -3.59486 -3.54009 0.000347235
210 1 12.1441 4.27593 -1.78736 -3.54019 0.000610003
211 1 11.7757 6.04481 0.0201383 -3.54015 0.000617297
212 1 11.4117 7.80871 1.82764 -3.5398 0.000266397
213 1 13.9169 4.62793 -3.59486 -3.54019 0.00034254
214 1 13.5545 6.3972 -1.78736 -3.53996 0.000257905
215 1 13.1945 8.16273 0.0201383 -3.53974 0.000123879
216 1 12.8362 9.92643 1.82764 -3.53976 5.16283e-05
217 1 15.3324 6.74779 -3.59486 -3.53998 0.000113772
218 1 14.9748 8.51514 -1.78736 -3.53991 8.58991e-05
219 1 14.6178 10.2806 0.0201383 -3.54002 7.4301e-05
220 1 14.262 12.0447 1.82764 -3.54021 0.00010725
221 1 16.7537 8.86609 -3.59486 -3.54008 6.74961e-05
222 1 16.3988 10.6326 -1.78736 -3.54014 7.95501e-05
223 1 16.0455 12.397 0.0201384 -3.54017 7.7783e-05
224 1 15.6949 14.1596 1.82764 -3.54007 5.16639e-05
225 1 18.1793 10.9832 -3.59486 -3.54017 5.16015e-05
226 1 17.8281 12.7484 -1.78736 -3.5401 4.29861e-05
227 1 17.4787 14.5121 0.0201384 -3.53998 5.11294e-05
228 1 17.1309 16.2754 1.82764 -3.53987 0.000112052
229 1 19.6087 13.0998 -3.59486 -3.54006 3.5856e-05
230 1 19.2594 14.8653 -1.78736 -3.53998 6.54536e-05
231 1 18.9104 16.6308 0.0201385 -3.53994 0.000104247
232 1 18.5609 18.3974 1.82764 -3.53998 0.000118135
233 1 21.0373 15.2191 -3.59486 -3.54003 6.23374e-05
234 1 20.6869 16.9867 -1.78736 -3.54003 7.56962e-05
235 1 22.4612 17.3428 -3.59486 -3.54009 4.86308e-05
236 1 1.89307 -17.9066 -3.59486 -3.45093 0.603816
237 1 1.36961 -16.1242 -1.78736 -3.44343 0.668703
238 1 1.00129 -14.5121 0.0201364 -3.4884 0.453115
239 1 0.894642 -12.7707 1.82764 -3.5274 0.438635
240 1 3.25592 -15.8601 -3.59486 -3.51741 0.0974088
241 1 2.95873 -14.1693 -1.78736 -3.50887 0.0591501
242 1 2.67224 -12.4553 0.0201364 -3.54235 0.127567
243 1 2.43342 -10.662 1.82764 -3.53229 0.0939555
244 1 4.78535 -13.8403 -3.59486 -3.53015 0.0209204
245 1 4.47417 -12.0966 -1.78736 -3.53465 0.0244374
246 1 4.14841 -10.3144 0.0201373 -3.54327 0.0248856
247 1 3.80809 -8.49684 1.82764 -3.53928 0.0109221
248 1 6.23896 -11.7349 -3.59486 -3.53733 0.00516898
249 1 5.88996 -9.95286 -1.78736 -3.54158 0.00224107
250 1 5.53514 -8.15785 0.0201373 -3.54346 0.00282218
251 1 5.17773 -6.36246 1.82764 -3.54035 0.0059132
252 1 7.64099 -9.5957 -3.59486 -3.54047 0.000169468
253 1 7.28522 -7.81024 -1.78736 -3.54167 0.000565912
254 1 6.93118 -6.0249 0.0201373 -3.54116 0.000433068
255 1 6.57551 -4.24547 1.82764 -3.53864 0.00281708
256 1 9.04335 -7.46053 -3.59486 -3.54044 3.96964e-05
257 1 8.68968 -5.67862 -1.78736 -3.54038 7.62042e-05
258 1 8.33363 -3.89735 0.0201373 -3.53981 0.000476335
259 1 7.96982 -2.11939 1.82764 -3.5392 0.00149367
260 1 10.4486 -5.32758 -3.59486 -3.54004 6.46302e-05
261 1 10.0907 -3.5455 -1.78736 -3.5401 0.000119128
262 1 9.72775 -1.76452 0.0201374 -3.53994 0.000352726
263 1 9.35884 0.0125992 1.82764 -3.53959 0.000743283
264 1 11.8487 -3.19211 -3.59486 -3.54012 4.354e-05
265 1 11.4862 -1.41037 -1.78736 -3.54008 9.98378e-05
266 1 11.1198 0.369356 0.0201382 -3.53984 0.000268355
267 1 10.7489 2.14589 1.82764 -3.53969 0.000459452
268 1 13.2462 -1.05651 -3.59486 -3.54011 4.98489e-05
269 1 12.8813 0.723922 -1.78736 -3.54007 0.00014068
270 1 12.5136 2.5019 0.0201383 -3.54009 0.000347235
271 1 12.1441 4.27593 1.82764 -3.54019 0.000610003
272 1 14.645 1.07671 -3.59486 -3.54023 0.000133348
273 1 14.2809 2.85419 -1.78736 -3.54027 0.000264653
274 1 13.9169 4.62793 0.0201383 -3.54019 0.00034254
275 1 13.5545 6.3972 1.82764 -3.53996 0.000257905
276 1 16.0508 3.20442 -3.59486 -3.54027 0.000158585
277 1 15.691 4.97772 -1.78736 -3.54015 0.000149757
278 1 15.3324 6.74779 0.0201383 -3.53998 0.000113772
279 1 14.9748 8.51514 1.82764 -3.53991 8.58991e-05
280 1 17.4656 5.32687 -3.59486 -3.54015 6.59035e-05
281 1 17.1094 7.09756 -1.78736 -3.54008 6.05273e-05
282 1 16.7537 8.86609 0.0201384 -3.54008 6.74961e-05
283 1 16.3988 10.6326 1.82764 -3.54014 7.95501e-05
284 1 18.8859 7.44693 -3.59486 -3.54017 3.79262e-05
285 1 18.5321 9.21603 -1.78736 -3.54018 4.77315e-05
286 1 18.1793 10.9832 0.0201384 -3.54017 5.16015e-05
287 1 17.8281 12.7484 1.82764 -3.5401 4.29861e-05
288 1 20.3101 9.56564 -3.59486 -3.5402 2.56559e-05
289 1 19.9589 11.3334 -1.78736 -3.54015 2.70243e-05
290 1 19.6087 13.0998 0.0201394 -3.54006 3.5856e-05
291 1 19.2594 14.8653 1.82764 -3.53998 6.54536e-05
292 1 21.7371 11.6841 -3.59486 -3.54014 1.91235e-05
293 1 21.3872 13.4518 -1.78736 -3.54007 3.77955e-05
294 1 21.0373 15.2191 0.0201394 -3.54003 6.23374e-05
295 1 20.6869 16.9867 1.82764 -3.54003 7.56962e-05
296 1 23.1635 13.8045 -3.59486 -3.5401 3.52488e-05
297 1 22.8128 15.5735 -1.78736 -3.54008 4.7755e-05
298 1 22.4612 17.3428 0.0201394 -3.54009 4.86308e-05
299 1 24.5865 15.9283 -3.59486 -3.54013 3.22908e-05
300 1 24.2339 17.6989 -1.78736 -3.54014 2.95594e-05
301 1 26.0056 18.055 -3.59486 -3.54017 1.75056e-05
302 1 1.89307 -17.9066 0.0201364 -3.45093 0.603816
303 1 1.36961 -16.1242 1.82764 -3.44343 0.668703
304 1 3.59779 -17.6452 -1.78736 -3.54056 0.0757541
305 1 3.25592 -15.8601 0.0201364 -3.51741 0.0974088
306 1 2.95873 -14.1693 1.82764 -3.50887 0.0591501
307 1 5.37907 -17.3575 -3.59486 -3.54435 0.015335
308 1 5.08108 -15.5907 -1.78736 -3.53575 0.00818058
309 1 4.78535 -13.8403 0.0201373 -3.53015 0.0209204
310 1 4.47417 -12.0966 1.82764 -3.53465 0.0244374
311 1 6.87624 -15.2797 -3.59486 -3.53842 0.0048887
312 1 6.56821 -13.5098 -1.78736 -3.53637 0.00868577
313 1 6.23896 -11.7349 0.0201373 -3.53733 0.00516898
314 1 5.88996 -9.95286 1.82764 -3.54158 0.00224107
315 1 8.33199 -13.1656 -3.59486 -3.53901 0.00276344
316 1 7.9928 -11.3813 -1.78736 -3.53931 0.000861184
317 1 7.64099 -9.5957 0.0201373 -3.54047 0.000169468
318 1 7.28522 -7.81024 1.82764 -3.54167 0.000565912
319 1 9.74749 -11.0291 -3.59486 -3.54024 0.000179846
320 1 9.39676 -9.24387 -1.78736 -3.54029 6.56038e-05
321 1 9.04335 -7.46053 0.0201373 -3.54044 3.96964e-05
322 1 8.68968 -5.67862 1.82764 -3.54038 7.62042e-05
323 1 11.1556 -8.89248 -3.59486 -3.54025 3.89688e-05
324 1 10.8032 -7.10971 -1.78736 -3.54005 2.42558e-05
325 1 10.4486 -5.32758 0.0201382 -3.54004 6.46302e-05
326 1 10.0907 -3.5455 1.82764 -3.5401 0.000119128
327 1 12.5633 -6.75706 -3.59486 -3.54005 4.23273e-05
328 1 12.2076 -4.97458 -1.78736 -3.54003 4.22424e-05
329 1 11.8487 -3.19211 0.0201383 -3.54012 4.354e-05
330 1 11.4862 -1.41037 1.82764 -3.54008 9.98378e-05
331 1 13.9674 -4.62053 -3.59486 -3.54011 2.74402e-05
332 1 13.6081 -2.83826 -1.78736 -3.54012 2.47261e-05
333 1 13.2462 -1.05651 0.0201383 -3.54011 4.98489e-05
334 1 12.8813 0.723922 1.82764 -3.54007 0.00014068
335 1 15.3693 -2.48428 -3.59486 -3.54017 2.61444e-05
336 1 15.008 -0.70317 -1.78736 -3.54018 5.43275e-05
337 1 14.645 1.07671 0.0201383 -3.54023 0.000133348
338 1 14.2809 2.85419 1.82764 -3.54027 0.000264653
339 1 16.7723 -0.35051 -3.59486 -3.54027 6.91547e-05
340 1 16.4115 1.42808 -1.78736 -3.5403 0.000119923
341 1 16.0508 3.20442 0.0201384 -3.54027 0.000158585
342 1 15.691 4.97772 1.82764 -3.54015 0.000149757
343 1 18.1805 1.77866 -3.59486 -3.5403 8.48604e-05
344 1 17.8226 3.55388 -1.78736 -3.54024 8.09354e-05
345 1 17.4656 5.32687 0.0201384 -3.54015 6.59035e-05
346 1 17.1094 7.09756 1.82764 -3.54008 6.05273e-05
347 1 19.5955 3.90332 -3.59486 -3.54023 4.20263e-05
348 1 19.2403 5.67599 -1.78736 -3.54019 3.48044e-05
349 1 18.8859 7.44693 0.0201393 -3.54017 3.79262e-05
350 1 18.5321 9.21603 1.82764 -3.54018 4.77315e-05
351 1 21.0154 6.02534 -3.59486 -3.54023 2.13259e-05
352 1 20.6623 7.79625 -1.78736 -3.54022 2.28739e-05
353 1 20.3101 9.56564 0.0201394 -3.5402 2.56559e-05
354 1 19.9589 11.3334 1.82764 -3.54015 2.70243e-05
355 1 22.4387 8.14588 -3.59486 -3.54023 1.1147e-05
356 1 22.0876 9.91553 -1.78736 -3.54019 1.19088e-05
357 1 21.7371 11.6841 0.0201394 -3.54014 1.91235e-05
358 1 21.3872 13.4518 1.82764 -3.54007 3.77955e-05
359 1 23.8641 10.2661 -3.59486 -3.54018 8.32147e-06
360 1 23.5138 12.0355 -1.78736 -3.54014 1.9141e-05
361 1 23.1635 13.8045 0.0201395 -3.5401 3.52488e-05
362 1 22.8128 15.5735 1.82764 -3.54008 4.7755e-05
363 1 25.2891 12.3878 -3.59486 -3.54015 1.88649e-05
364 1 24.9382 14.158 -1.78736 -3.54013 2.81792e-05
365 1 24.5865 15.9283 0.0201395 -3.54013 3.22908e-05
366 1 24.2339 17.6989 1.82764 -3.54014 2.95594e-05
367 1 26.7115 14.512 -3.59486 -3.54016 2.02187e-05
368 1 26.359 16.2833 -1.78736 -3.54016 2.03537e-05
369 1 26.0056 18.055 0.0201395 -3.54017 1.75056e-05
370 1 28.1307 16.6385 -3.59486 -3.54018 1.22823e-05
371 1 27.7766 18.4109 -1.78736 -3.54018 1.0124e-05
372 1 3.59779 -17.6452 1.82764 -3.54056 0.0757541
373 1 5.37907 -17.3575 0.0201373 -3.54435 0.015335
374 1 5.08108 -15.5907 1.82764 -3.53575 0.00818058
375 1 7.18069 -17.0459 -1.78736 -3.54042 0.00286774
376 1 6.87624 -15.2797 0.0201373 -3.53842 0.0048887
377 1 6.56821 -13.5098 1.82764 -3.53637 0.00868577
378 1 8.97599 -16.7117 -3.59486 -3.53911 0.00199868
379 1 8.65723 -14.9435 -1.78736 -3.53896 0.00370637
380 1 8.33199 -13.1656 0.0201373 -3.53901 0.00276344
381 1 7.9928 -11.3813 1.82764 -3.53931 0.000861184
382 1 10.4298 -14.5929 -3.59486 -3.53955 0.00172538
383 1 10.0923 -12.8137 -1.78736 -3.54003 0.000868973
384 1 9.74749 -11.0291 0.0201374 -3.54024 0.000179846
385 1 9.39676 -9.24387 1.82764 -3.54029 6.56038e-05
386 1 11.8542 -12.458 -3.59486 -3.54033 0.000326481
387 1 11.5061 -10.6759 -1.78736 -3.54043 0.000123129
388 1 11.1556 -8.89248 0.0201382 -3.54025 3.89688e-05
389 1 10.8032 -7.10971 1.82764 -3.54005 2.42558e-05
390 1 13.2681 -10.3207 -3.59486 -3.54036 0.00010181
391 1 12.9165 -8.53926 -1.78736 -3.54021 5.78227e-05
392 1 12.5633 -6.75706 0.0201383 -3.54005 4.23273e-05
393 1 12.2076 -4.97458 1.82764 -3.54003 4.22424e-05
394 1 14.6789 -8.18391 -3.59486 -3.5402 6.2668e-05
395 1 14.3242 -6.40264 -1.78736 -3.54013 4.33112e-05
396 1 13.9674 -4.62053 0.0201383 -3.54011 2.74402e-05
397 1 13.6081 -2.83826 1.82764 -3.54012 2.47261e-05
398 1 16.0863 -6.04692 -3.59486 -3.54019 3.65401e-05
399 1 15.7287 -4.26577 -1.78736 -3.54017 2.47653e-05
400 1 15.3693 -2.48428 0.0201383 -3.54017 2.61444e-05
401 1 15.008 -0.70317 1.82764 -3.54018 5.43275e-05
402 1 17.4918 -3.9106 -3.59486 -3.54023 2.79011e-05
403 1 17.1325 -2.13036 -1.78736 -3.54023 3.78966e-05
404 1 16.7723 -0.35051 0.0201384 -3.54027 6.91547e-05
405 1 16.4115 1.42808 1.82764 -3.5403 0.000119923
406 1 18.8982 -1.77666 -3.59486 -3.54029 4.75073e-05
407 1 18.5392 0.00159215 -1.78736 -3.54031 6.91141e-05
408 1 18.1805 1.77866 0.0201384 -3.5403 8.48604e-05
409 1 17.8226 3.55388 1.82764 -3.54024 8.09354e-05
410 1 20.3084 0.353417 -3.59486 -3.54031 5.50651e-05
411 1 19.9515 2.12906 -1.78736 -3.54028 5.25275e-05
412 1 19.5955 3.90332 0.0201394 -3.54023 4.20263e-05
413 1 19.2403 5.67599 1.82764 -3.54019 3.48044e-05
414 1 21.7238 2.47965 -3.59486 -3.54027 3.22509e-05
415 1 21.3692 4.25308 -1.78736 -3.54024 2.47437e-05
416 1 21.0154 6.02534 0.0201394 -3.54023 2.13259e-05
417 1 20.6623 7.79625 1.82764 -3.54022 2.28739e-05
418 1 23.1435 4.60327 -3.59486 -3.54025 1.56168e-05
419 1 22.7907 6.37509 -1.78736 -3.54024 1.25471e-05
420 1 22.4387 8.14588 0.0201394 -3.54023 1.1147e-05
421 1 22.0876 9.91553 1.82764 -3.54019 1.19088e-05
422 1 24.5661 6.72543 -3.59486 -3.54024 6.24543e-06
423 1 24.2148 8.49615 -1.78736 -3.54022 5.00038e-06
424 1 23.8641 10.2661 0.0201395 -3.54018 8.32147e-06
425 1 23.5138 12.0355 1.82764 -3.54014 1.9141e-05
426 1 25.9904 8.84723 -3.59486 -3.5402 4.00496e-06
427 1 25.6397 10.6176 -1.78736 -3.54017 9.40519e-06
428 1 25.2891 12.3878 0.0201395 -3.54015 1.88649e-05
429 1 24.9382 14.158 1.82764 -3.54013 2.81792e-05
430 1 27.4143 10.97 -3.59486 -3.54018 1.05203e-05
431 1 27.0632 12.7409 -1.78736 -3.54016 1.64517e-05
432 1 26.7115 14.512 0.0201396 -3.54016 2.02187e-05
433 1 26.359 16.2833 1.82764 -3.54016 2.03537e-05
434 1 28.8362 13.0947 -3.59486 -3.54018 1.28508e-05
435 1 28.4838 14.8665 -1.78736 -3.54018 1.34591e-05
436 1 28.1307 16.6385 0.0201396 -3.54018 1.22823e-05
437 1 27.7766 18.4109 1.82764 -3.54018 1.0124e-05
438 1 30.2556 15.2213 -3.59486 -3.54019 8.45962e-06
439 1 29.9018 16.9939 -1.78736 -3.54019 7.22537e-06
440 1 31.6726 17.3492 -3.59486 -3.5402 4.27372e-06
441 1 7.18069 -17.0459 1.82764 -3.54042 0.00286774
442 1 8.97599 -16.7117 0.0201373 -3.53911 0.00199868
443 1 8.65723 -14.9435 1.82764 -3.53896 0.00370637
444 1 11.0927 -18.1276 -3.59486 -3.53935 0.000584271
445 1 10.7618 -16.3639 -1.78736 -3.53916 0.00152497
446 1 10.4298 -14.5929 0.0201374 -3.53955 0.00172538
447 1 10.0923 -12.8137 1.82764 -3.54003 0.000868973
448 1 12.5403 -16.0086 -3.59486 -3.53957 0.000820852
449 1 12.1991 -14.2362 -1.78736 -3.53995 0.000646805
450 1 11.8542 -12.458 0.0201383 -3.54033 0.000326481
451 1 11.5061 -10.6759 1.82764 -3.54043 0.000123129
452 1 13.9676 -13.8771 -3.59486 -3.54015 0.000238525
453 1 13.6185 -12.1004 -1.78736 -3.54034 0.000152883
454 1 13.2681 -10.3207 0.0201383 -3.54036 0.00010181
455 1 12.9165 -8.53926 1.82764 -3.54021 5.78227e-05
456 1 15.3846 -11.7417 -3.59486 -3.54028 8.19711e-05
457 1 15.0322 -9.96375 -1.78736 -3.54027 7.62304e-05
458 1 14.6789 -8.18391 0.0201383 -3.5402 6.2668e-05
459 1 14.3242 -6.40264 1.82764 -3.54013 4.33112e-05
460 1 16.7975 -9.60563 -3.59486 -3.54022 5.12258e-05
461 1 16.4425 -7.82705 -1.78736 -3.5402 4.86181e-05
462 1 16.0863 -6.04692 0.0201384 -3.54019 3.65401e-05
463 1 15.7287 -4.26577 1.82764 -3.54017 2.47653e-05
464 1 18.2073 -7.46939 -3.59486 -3.54022 3.15864e-05
465 1 17.8501 -5.69047 -1.78736 -3.54022 2.90218e-05
466 1 17.4918 -3.9106 0.0201384 -3.54023 2.79011e-05
467 1 17.1325 -2.13036 1.82764 -3.54023 3.78966e-05
468 1 19.6154 -5.33381 -3.59486 -3.54025 2.42911e-05
469 1 19.257 -3.55535 -1.78736 -3.54027 3.23299e-05
470 1 18.8982 -1.77666 0.0201393 -3.54029 4.75073e-05
471 1 18.5392 0.00159215 1.82764 -3.54031 6.91141e-05
472 1 21.0242 -3.20029 -3.59486 -3.54029 3.40752e-05
473 1 20.6661 -1.4232 -1.78736 -3.5403 4.68881e-05
474 1 20.3084 0.353417 0.0201394 -3.54031 5.50651e-05
475 1 19.9515 2.12906 1.82764 -3.54028 5.25275e-05
476 1 22.4359 -1.06994 -3.59486 -3.5403 3.82887e-05
477 1 22.0794 0.705227 -1.78736 -3.54029 3.85399e-05
478 1 21.7238 2.47965 0.0201394 -3.54027 3.22509e-05
479 1 21.3692 4.25308 1.82764 -3.54024 2.47437e-05
480 1 23.8518 1.05718 -3.59486 -3.54027 2.55356e-05
481 1 23.4972 2.83059 -1.78736 -3.54026 2.05007e-05
482 1 23.1435 4.60327 0.0201395 -3.54025 1.56168e-05
483 1 22.7907 6.37509 1.82764 -3.54024 1.25471e-05
484 1 25.2712 3.18193 -3.59486 -3.54025 1.28209e-05
485 1 24.9182 4.95399 -1.78736 -3.54025 9.24348e-06
486 1 24.5661 6.72543 0.0201395 -3.54024 6.24543e-06
487 1 24.2148 8.49615 1.82764 -3.54022 5.00038e-06
488 1 26.6932 5.30528 -3.59486 -3.54024 4.80285e-06
489 1 26.3415 7.07646 -1.78736 -3.54023 3.11176e-06
490 1 25.9904 8.84723 0.0201395 -3.5402 4.00496e-06
491 1 25.6397 10.6176 1.82764 -3.54017 9.40519e-06
492 1 28.1165 7.42825 -3.59486 -3.54021 2.61217e-06
493 1 27.7653 9.19917 -1.78736 -3.54019 5.25677e-06
494 1 27.4143 10.97 0.0201396 -3.54018 1.05203e-05
495 1 27.0632 12.7409 1.82764 -3.54016 1.64517e-05
496 1 29.5396 9.55192 -3.59486 -3.54019 6.46815e-06
497 1 29.1881 11.3232 -1.78736 -3.54018 1.0212e-05
498 1 28.8362 13.0947 0.0201396 -3.54018 1.28508e-05
499 1 28.4838 14.8665 1.82764 -3.54018 1.34591e-05
500 1 30.9611 11.677 -3.59486 -3.54019 8.67321e-06
501 1 30.6086 13.449 -1.78736 -3.54019 9.11218e-06
502 1 30.2556 15.2213 0.0201397 -3.54019 8.45962e-06
503 1 29.9018 16.9939 1.82764 -3.54019 7.22537e-06
504 1 32.3805 13.8036 -3.59486 -3.5402 5.86771e-06
505 1 32.0269 15.5763 -1.78736 -3.5402 5.16405e-06
506 1 31.6726 17.3492 0.0201397 -3.5402 4.27372e-06
507 1 33.798 15.9314 -3.59486 -3.54021 3.35625e-06
508 1 33.4434 17.7045 -1.78736 -3.54022 2.59631e-06
509 1 35.2141 18.0598 -3.59486 -3.54023 1.44097e-06
510 1 11.0927 -18.1276 0.0201382 -3.53935 0.000584271
511 1 10.7618 -16.3639 1.82764 -3.53916 0.00152497
512 1 12.879 -17.775 -1.78736 -3.53946 0.000576462
513 1 12.5403 -16.0086 0.0201383 -3.53957 0.000820852
514 1 12.1991 -14.2362 1.82764 -3.53995 0.000646805
515 1 14.6595 -17.4182 -3.59486 -3.53972 0.000382203
516 1 14.3146 -15.6499 -1.78736 -3.5399 0.000360095
517 1 13.9676 -13.8771 0.0201383 -3.54015 0.000238525
518 1 13.6185 -12.1004 1.82764 -3.54034 0.000152883
519 1 16.087 -15.2899 -3.59486 -3.54008 0.000148276
520 1 15.7364 -13.5172 -1.78736 -3.54021 9.89863e-05
521 1 15.3846 -11.7417 0.0201383 -3.54028 8.19711e-05
522 1 15.0322 -9.96375 1.82764 -3.54027 7.62304e-05
523 1 17.5055 -13.1571 -3.59486 -3.54021 4.74013e-05
524 1 17.1518 -11.3824 -1.78736 -3.54023 4.69748e-05
525 1 16.7975 -9.60563 0.0201384 -3.54022 5.12258e-05
526 1 16.4425 -7.82705 1.82764 -3.5402 4.86181e-05
527 1 18.9195 -11.0229 -3.59486 -3.54021 2.65176e-05
528 1 18.5638 -9.24693 -1.78736 -3.54021 3.04156e-05
529 1 18.2073 -7.46939 0.0201384 -3.54022 3.15864e-05
530 1 17.8501 -5.69047 1.82764 -3.54022 2.90218e-05
531 1 20.3308 -8.88816 -3.59486 -3.54021 1.62514e-05
532 1 19.9734 -7.11153 -1.78736 -3.54023 1.97012e-05
533 1 19.6154 -5.33381 0.0201394 -3.54025 2.42911e-05
534 1 19.257 -3.55535 1.82764 -3.54027 3.23299e-05
535 1 21.7407 -6.7539 -3.59486 -3.54024 1.39265e-05
536 1 21.3825 -4.97733 -1.78736 -3.54026 2.24184e-05
537 1 21.0242 -3.20029 0.0201394 -3.54029 3.40752e-05
538 1 20.6661 -1.4232 1.82764 -3.5403 4.68881e-05
539 1 23.1511 -4.62126 -3.59486 -3.54027 2.1186e-05
540 1 22.7932 -2.84555 -1.78736 -3.54029 3.11932e-05
541 1 22.4359 -1.06994 0.0201394 -3.5403 3.82887e-05
542 1 22.0794 0.705227 1.82764 -3.54029 3.85399e-05
543 1 24.5638 -2.49115 -3.59486 -3.54028 2.51912e-05
544 1 24.2073 -0.716791 -1.78736 -3.54028 2.77317e-05
545 1 23.8518 1.05718 0.0201395 -3.54027 2.55356e-05
546 1 23.4972 2.83059 1.82764 -3.54026 2.05007e-05
547 1 25.9799 -0.363684 -3.59486 -3.54026 1.86949e-05
548 1 25.6251 1.40934 -1.78736 -3.54026 1.63556e-05
549 1 25.2712 3.18193 0.0201395 -3.54025 1.28209e-05
550 1 24.9182 4.95399 1.82764 -3.54025 9.24348e-06
551 1 27.399 1.76172 -3.59486 -3.54025 9.83822e-06
552 1 27.0457 3.53369 -1.78736 -3.54025 7.31073e-06
553 1 26.6932 5.30528 0.0201396 -3.54024 4.80285e-06
554 1 26.3415 7.07646 1.82764 -3.54023 3.11176e-06
555 1 28.8203 3.88588 -3.59486 -3.54023 3.69843e-06
556 1 28.4681 5.65717 -1.78736 -3.54023 2.50238e-06
557 1 28.1165 7.42825 0.0201396 -3.54021 2.61217e-06
558 1 27.7653 9.19917 1.82764 -3.54019 5.25677e-06
559 1 30.2428 6.00968 -3.59486 -3.54021 1.84775e-06
560 1 29.8911 7.78078 -1.78736 -3.5402 3.31316e-06
561 1 29.5396 9.55192 0.0201396 -3.54019 6.46815e-06
562 1 29.1881 11.3232 1.82764 -3.54018 1.0212e-05
563 1 31.6652 8.13395 -3.59486 -3.5402 4.13847e-06
564 1 31.3133 9.90535 -1.78736 -3.5402 6.82448e-06
565 1 30.9611 11.677 0.0201397 -3.54019 8.67321e-06
566 1 30.6086 13.449 1.82764 -3.54019 9.11218e-06
567 1 33.0863 10.2593 -3.59486 -3.5402 6.2266e-06
568 1 32.7336 12.0313 -1.78736 -3.5402 6.38529e-06
569 1 32.3805 13.8036 0.0201397 -3.5402 5.86771e-06
570 1 32.0269 15.5763 1.82764 -3.5402 5.16405e-06
571 1 34.5057 12.386 -3.59486 -3.5402 3.8943e-06
572 1 34.1521 14.1585 -1.78736 -3.5402 3.5801e-06
573 1 33.798 15.9314 0.0201397 -3.54021 3.35625e-06
574 1 33.4434 17.7045 1.82764 -3.54022 2.59631e-06
575 1 35.9235 14.5136 -3.59486 -3.54021 2.63961e-06
576 1 35.569 16.2866 -1.78736 -3.54022 2.58186e-06
577 1 35.2141 18.0598 0.0201397 -3.54023 1.44097e-06
578 1 37.34 16.6417 -3.59486 -3.54024 2.00532e-06