ITEM: TIMESTEP
0
ITEM: NUMBER OF ATOMS
2504
ITEM: BOX BOUNDS xy xz yz mm pp pp
-5.5498871899999997e+01 5.5498871899999997e+01 0.0000000000000000e+00
-1.8432957300000002e+01 1.8432957300000002e+01 0.0000000000000000e+00
-3.6150000000000002e+00 3.6150000000000002e+00 0.0000000000000000e+00
ITEM: ATOMS id type x y z c_eng c_csym
1 1 0.631927 16.7654 -3.60138 -3.43978 3.54899
2 1 0.291178 -18.2832 -1.79388 -3.28166 9.04605
3 1 0.986375 13.0481 -3.60138 -3.50018 0.308206
4 1 0.852488 14.8048 -1.79388 -3.50392 0.583688
5 1 0.631927 16.7654 0.0136206 -3.43978 3.54899
6 1 0.291178 -18.2832 1.82112 -3.28166 9.04605
7 1 2.57767 15.179 -3.60138 -3.54066 0.118948
8 1 2.28452 17.0178 -1.79388 -3.51982 0.0834033
9 1 3.97208 17.3777 -3.60138 -3.54449 0.0301144
10 1 0.513851 7.41319 -3.60138 -3.5204 0.93851
11 1 0.17013 9.16727 -1.79388 -3.36829 2.64266
12 1 1.81081 9.6062 -3.60138 -3.50137 0.221175
13 1 1.32921 11.3716 -1.79388 -3.5023 0.306962
14 1 0.986375 13.0481 0.0136207 -3.50018 0.308206
15 1 0.852488 14.8048 1.82112 -3.50392 0.583688
16 1 3.19471 11.6969 -3.60138 -3.52519 0.0343935
17 1 2.89062 13.4095 -1.79388 -3.51563 0.0650475
18 1 2.57767 15.179 0.0136208 -3.54066 0.118948
19 1 2.28452 17.0178 1.82112 -3.51982 0.0834033
20 1 4.6843 13.7849 -3.60138 -3.53342 0.0128577
21 1 4.33691 15.5588 -1.79388 -3.53792 0.014982
22 1 3.97208 17.3777 0.0136209 -3.54449 0.0301144
23 1 6.09162 15.9338 -3.60138 -3.54106 0.00295418
24 1 5.72724 17.7202 -1.79388 -3.54496 0.0144463
25 1 7.51463 18.0589 -3.60138 -3.54156 0.00335019
26 1 1.10068 3.78461 -3.60138 -3.53215 0.117459
27 1 0.828897 5.5647 -1.79388 -3.54163 0.0763413
28 1 0.513851 7.41319 0.0136206 -3.5204 0.93844
29 1 0.17013 9.16727 1.82112 -3.36904 2.64266
30 1 2.57408 5.9449 -3.60138 -3.54153 0.0301177
31 1 2.23574 7.74704 -1.79388 -3.52424 0.0376254
32 1 1.81081 9.6062 0.0136208 -3.50137 0.221175
33 1 1.32921 11.3716 1.82112 -3.5023 0.306962
34 1 3.94551 8.13729 -3.60138 -3.5435 0.0146719
35 1 3.55267 9.93612 -1.79388 -3.54282 0.0470575
36 1 3.19471 11.6969 0.0136209 -3.52519 0.0343935
37 1 2.89062 13.4095 1.82112 -3.51563 0.0650475
38 1 5.34677 10.2695 -3.60138 -3.54186 0.00642527
39 1 5.01667 12.0254 -1.79388 -3.53451 0.00634857
40 1 4.6843 13.7849 0.0136215 -3.53342 0.0128577
41 1 4.33691 15.5588 1.82112 -3.53792 0.014982
42 1 6.80379 12.3787 -3.60138 -3.53802 0.00272202
43 1 6.45523 14.151 -1.79388 -3.53809 0.00182926
44 1 6.09162 15.9338 0.0136216 -3.54106 0.00295418
45 1 5.72724 17.7202 1.82112 -3.54496 0.0144463
46 1 8.22303 14.5131 -3.60138 -3.54063 0.000445585
47 1 7.86381 16.2886 -1.79388 -3.54156 0.00267652
48 1 7.51463 18.0589 0.0136216 -3.54156 0.00335019
49 1 9.64826 16.6365 -3.60138 -3.5408 0.000905631
50 1 9.30755 18.4005 -1.79388 -3.53979 0.000460272
51 1 0.529944 -1.82082 -3.60138 -3.52611 0.741056
52 1 0.194923 -0.0834998 -1.79388 -3.39733 1.95699
53 1 1.91018 0.318214 -3.60138 -3.52104 0.114545
54 1 1.48119 2.0715 -1.79388 -3.51871 0.117181
55 1 1.10068 3.78461 0.0136207 -3.53215 0.11739
56 1 0.828897 5.5647 1.82112 -3.54098 0.0763413
57 1 3.28788 2.4432 -3.60138 -3.53194 0.0101307
58 1 2.93127 4.18164 -1.79388 -3.53189 0.0127907
59 1 2.57408 5.9449 0.0136208 -3.54153 0.0301177
60 1 2.23574 7.74704 1.82112 -3.52434 0.0376254
61 1 4.70903 4.56853 -3.60138 -3.53635 0.00343922
62 1 4.33622 6.33828 -1.79388 -3.53787 0.00535958
63 1 3.94551 8.13729 0.0136209 -3.5435 0.0146719
64 1 3.55267 9.93612 1.82112 -3.54282 0.0470575
65 1 6.09139 6.72378 -3.60138 -3.54089 0.00232078
66 1 5.70791 8.50084 -1.79388 -3.5436 0.00973202
67 1 5.34677 10.2695 0.0136216 -3.54186 0.00642527
68 1 5.01667 12.0254 1.82112 -3.53451 0.00634857
69 1 7.49501 8.8553 -3.60138 -3.54084 0.00206256
70 1 7.14532 10.6153 -1.79388 -3.53901 0.000858217
71 1 6.80379 12.3787 0.0136216 -3.53802 0.00272202
72 1 6.45523 14.151 1.82112 -3.53809 0.00182926
73 1 8.93241 10.9716 -3.60138 -3.53908 0.0005139
74 1 8.58031 12.739 -1.79388 -3.53956 0.000496914
75 1 8.22303 14.5131 0.0136217 -3.54063 0.000445585
76 1 7.86381 16.2886 1.82112 -3.54156 0.00267652
77 1 10.356 13.0987 -3.60138 -3.54041 0.000104083
78 1 9.99941 14.8685 -1.79388 -3.54101 0.000674883
79 1 9.64826 16.6365 0.0136217 -3.5408 0.000905631
80 1 9.30755 18.4005 1.82112 -3.53979 0.000460272
81 1 11.7823 15.2208 -3.60138 -3.54057 0.000279612
82 1 11.4357 16.985 -1.79388 -3.54008 0.000150144
83 1 13.2206 17.3368 -3.60138 -3.53984 0.000122425
84 1 1.14351 -5.39732 -3.60138 -3.52535 0.159608
85 1 0.848968 -3.65082 -1.79388 -3.54688 0.0873573
86 1 0.529944 -1.82082 0.0136206 -3.52611 0.740987
87 1 0.194923 -0.0834998 1.82112 -3.39759 1.95699
88 1 2.62259 -3.25172 -3.60138 -3.54363 0.0246349
89 1 2.28608 -1.48834 -1.79388 -3.53354 0.0208122
90 1 1.91018 0.318214 0.0136208 -3.52104 0.11451
91 1 1.48119 2.0715 1.82112 -3.51916 0.117181
92 1 4.03641 -1.09679 -3.60138 -3.54352 0.00341458
93 1 3.65966 0.677374 -1.79388 -3.54124 0.00551096
94 1 3.28788 2.4432 0.0136209 -3.53194 0.0101307
95 1 2.93127 4.18164 1.82112 -3.532 0.0127907
96 1 5.43329 1.04361 -3.60138 -3.54164 0.000625157
97 1 5.07279 2.80486 -1.79388 -3.53813 0.00120363
98 1 4.70903 4.56853 0.0136215 -3.53635 0.00343922
99 1 4.33622 6.33828 1.82112 -3.53787 0.00535958
100 1 6.84466 3.17526 -3.60138 -3.53934 0.000669965
101 1 6.47368 4.94619 -1.79388 -3.53893 0.000695403
102 1 6.09139 6.72378 0.0136216 -3.54089 0.00232078
103 1 5.70791 8.50084 1.82112 -3.5436 0.00973202
104 1 8.23742 5.31727 -3.60138 -3.5406 0.000639678
105 1 7.86171 7.08935 -1.79388 -3.54129 0.00238559
106 1 7.49501 8.8553 0.0136216 -3.54084 0.00206256
107 1 7.14532 10.6153 1.82112 -3.53901 0.000858217
108 1 9.64229 7.44622 -3.60138 -3.54052 0.000769875
109 1 9.28424 9.2091 -1.79388 -3.53957 0.000188219
110 1 8.93241 10.9716 0.0136217 -3.53908 0.0005139
111 1 8.58031 12.739 1.82112 -3.53956 0.000496914
112 1 11.0681 9.56492 -3.60138 -3.53956 7.67732e-05
113 1 10.7127 11.3303 -1.79388 -3.53972 8.64356e-05
114 1 10.356 13.0987 0.0136218 -3.54041 0.000104083
115 1 9.99941 14.8685 1.82112 -3.54101 0.000674883
116 1 12.4912 11.6877 -3.60138 -3.54017 2.65728e-05
117 1 12.1351 13.4547 -1.79388 -3.54054 0.000175675
118 1 11.7823 15.2208 0.0136224 -3.54057 0.000279612
119 1 11.4357 16.985 1.82112 -3.54008 0.000150144
120 1 13.9167 13.8083 -3.60138 -3.54034 9.00735e-05
121 1 13.5666 15.5728 -1.79388 -3.54015 5.54309e-05
122 1 13.2206 17.3368 0.0136225 -3.53984 0.000122425
123 1 15.3491 15.926 -3.60138 -3.53999 4.58464e-05
124 1 15.0016 17.6913 -1.79388 -3.53988 0.0001304
125 1 16.7793 18.0474 -3.60138 -3.53999 9.04231e-05
126 1 0.696131 -10.9053 -3.60138 -3.45984 2.98622
127 1 0.404891 -9.13233 -1.79388 -3.30171 8.3459
128 1 2.04901 -8.79352 -3.60138 -3.49079 0.37206
129 1 1.58801 -7.03765 -1.79388 -3.48151 0.358044
130 1 1.14351 -5.39732 0.0136207 -3.52536 0.159538
131 1 0.848968 -3.65082 1.82112 -3.54628 0.0873573
132 1 3.38233 -6.69706 -3.60138 -3.52709 0.0600855
133 1 3.00386 -4.97142 -1.79388 -3.52538 0.0274461
134 1 2.62259 -3.25172 0.0136208 -3.54363 0.0246349
135 1 2.28608 -1.48834 1.82112 -3.53369 0.0208122
136 1 4.78948 -4.60424 -3.60138 -3.53447 0.0121277
137 1 4.41601 -2.85605 -1.79388 -3.53662 0.00445182
138 1 4.03641 -1.09679 0.0136215 -3.54352 0.00341458
139 1 3.65966 0.677374 1.82112 -3.54128 0.00551096
140 1 6.18456 -2.48194 -3.60138 -3.53843 0.0026554
141 1 5.80604 -0.718252 -1.79388 -3.54103 0.00093003
142 1 5.43329 1.04361 0.0136216 -3.54164 0.000625157
143 1 5.07279 2.80486 1.82112 -3.53813 0.00120363
144 1 7.57859 -0.353802 -3.60138 -3.53981 0.000854406
145 1 7.21095 1.41002 -1.79388 -3.53963 0.000300213
146 1 6.84466 3.17526 0.0136216 -3.53934 0.000669965
147 1 6.47368 4.94619 1.82112 -3.53893 0.000695403
148 1 8.98186 1.77413 -3.60138 -3.53936 0.00039308
149 1 8.61202 3.54447 -1.79388 -3.53974 0.000227477
150 1 8.23742 5.31727 0.0136217 -3.5406 0.000639678
151 1 7.86171 7.08935 1.82112 -3.54129 0.00238559
152 1 10.3792 3.90765 -3.60138 -3.5402 0.000332457
153 1 10.0087 5.67892 -1.79388 -3.54071 0.000784718
154 1 9.64229 7.44622 0.0136217 -3.54052 0.000769875
155 1 9.28424 9.2091 1.82112 -3.53957 0.000188219
156 1 11.785 6.03438 -3.60138 -3.54032 0.000378998
157 1 11.4246 7.8006 -1.79388 -3.53994 0.000138758
158 1 11.0681 9.56492 0.0136224 -3.53956 7.67732e-05
159 1 10.7127 11.3303 1.82112 -3.53972 8.64356e-05
160 1 13.2046 8.15444 -3.60138 -3.53986 5.321e-05
161 1 12.8479 9.92087 -1.79388 -3.53987 2.70961e-05
162 1 12.4912 11.6877 0.0136225 -3.54017 2.65728e-05
163 1 12.1351 13.4547 1.82112 -3.54054 0.000175675
164 1 14.6261 10.2754 -3.60138 -3.54011 3.10652e-05
165 1 14.2704 12.0424 -1.79388 -3.54029 6.31947e-05
166 1 13.9167 13.8083 0.0136226 -3.54034 9.00735e-05
167 1 13.5666 15.5728 1.82112 -3.54015 5.54309e-05
168 1 16.0502 12.3954 -3.60138 -3.54024 4.33122e-05
169 1 15.6985 14.1611 -1.79388 -3.54015 2.79646e-05
170 1 15.3491 15.926 0.0136227 -3.53999 4.58464e-05
171 1 15.0016 17.6913 1.82112 -3.53988 0.0001304
172 1 17.4787 14.5141 -3.60138 -3.54006 2.59891e-05
173 1 17.1289 16.2804 -1.79388 -3.53999 5.87666e-05
174 1 16.7793 18.0474 0.0136228 -3.53999 9.04231e-05
175 1 18.9059 16.6355 -3.60138 -3.54004 4.98462e-05
176 1 18.5548 18.404 -1.79388 -3.54008 5.18845e-05
177 1 1.00997 -14.5551 -3.60138 -3.48495 0.460987
178 1 0.895802 -12.8124 -1.79388 -3.52091 0.481807
179 1 0.696131 -10.9053 0.0136206 -3.45984 2.98622
180 1 0.404891 -9.13233 1.82112 -3.3009 8.3459
181 1 2.65392 -12.4673 -3.60138 -3.54297 0.124793
182 1 2.39033 -10.6638 -1.79388 -3.53021 0.0822413
183 1 2.04901 -8.79352 0.0136208 -3.49079 0.372026
184 1 1.58801 -7.03765 1.82112 -3.4821 0.358044
185 1 4.09926 -10.3065 -3.60138 -3.54526 0.019182
186 1 3.7482 -8.49166 -1.79388 -3.54126 0.0159103
187 1 3.38233 -6.69706 0.0136209 -3.52709 0.0600855
188 1 3.00386 -4.97142 1.82112 -3.52547 0.0274461
189 1 5.49357 -8.15874 -3.60138 -3.54396 0.0028573
190 1 5.14774 -6.37414 -1.79388 -3.53901 0.0040215
191 1 4.78948 -4.60424 0.0136215 -3.53447 0.0121277
192 1 4.41601 -2.85605 1.82112 -3.53662 0.00445182
193 1 6.90767 -6.03293 -3.60138 -3.54041 0.000374902
194 1 6.55321 -4.25408 -1.79388 -3.53856 0.00220092
195 1 6.18456 -2.48194 0.0136216 -3.53843 0.0026554
196 1 5.80604 -0.718252 1.82112 -3.54103 0.00093003
197 1 8.31133 -3.9021 -3.60138 -3.54016 0.000250281
198 1 7.94736 -2.12417 -1.79388 -3.53991 0.00090019
199 1 7.57859 -0.353802 0.0136216 -3.53981 0.000854406
200 1 7.21095 1.41002 1.82112 -3.53963 0.000300213
201 1 9.71079 -1.77081 -3.60138 -3.54024 0.000196731
202 1 9.34775 0.00350712 -1.79388 -3.53963 0.000385752
203 1 8.98186 1.77413 0.0136217 -3.53936 0.00039308
204 1 8.61202 3.54447 1.82112 -3.53974 0.000227477
205 1 11.1135 0.359102 -3.60138 -3.53983 0.000134983
206 1 10.7484 2.13415 -1.79388 -3.53976 0.00020743
207 1 10.3792 3.90765 0.0136224 -3.5402 0.000332457
208 1 10.0087 5.67892 1.82112 -3.54071 0.000784718
209 1 12.5147 2.49032 -3.60138 -3.54017 0.000166631
210 1 12.1493 4.26426 -1.79388 -3.54034 0.000358445
211 1 11.785 6.03438 0.0136224 -3.54032 0.000378998
212 1 11.4246 7.8006 1.82112 -3.53994 0.000138758
213 1 13.922 4.61694 -3.60138 -3.54028 0.000194174
214 1 13.5623 6.38702 -1.79388 -3.54007 0.000126886
215 1 13.2046 8.15444 0.0136225 -3.53986 5.321e-05
216 1 12.8479 9.92087 1.82112 -3.53987 2.70961e-05
217 1 15.3388 6.73869 -3.60138 -3.54004 4.8305e-05
218 1 14.9824 8.50759 -1.79388 -3.53999 3.43327e-05
219 1 14.6261 10.2754 0.0136226 -3.54011 3.10652e-05
220 1 14.2704 12.0424 1.82112 -3.54029 6.31947e-05
221 1 16.759 8.85981 -3.60138 -3.54014 2.85845e-05
222 1 16.4041 10.6283 -1.79388 -3.54021 3.9218e-05
223 1 16.0502 12.3954 0.0136228 -3.54024 4.33122e-05
224 1 15.6985 14.1611 1.82112 -3.54015 2.79646e-05
225 1 18.1819 10.9802 -3.60138 -3.54021 2.58322e-05
226 1 17.8296 12.7477 -1.79388 -3.54016 2.11305e-05
227 1 17.4787 14.5141 0.0136229 -3.54006 2.59891e-05
228 1 17.1289 16.2804 1.82112 -3.53999 5.87666e-05
229 1 19.6076 13.1 -3.60138 -3.54012 1.71667e-05
230 1 19.2567 14.8677 -1.79388 -3.54006 3.24403e-05
231 1 18.9059 16.6355 0.0136231 -3.54004 4.98462e-05
232 1 18.5548 18.404 1.82112 -3.54008 5.18845e-05
233 1 21.0328 15.2218 -3.60138 -3.54009 2.94643e-05
234 1 20.681 16.991 -1.79388 -3.5401 3.41199e-05
235 1 22.4546 17.3466 -3.60138 -3.54014 2.15286e-05
236 1 1.89547 -17.9328 -3.60138 -3.45403 0.632456
237 1 1.37915 -16.1614 -1.79388 -3.43936 0.688422
238 1 1.00997 -14.5551 0.0136207 -3.48495 0.460987
239 1 0.895802 -12.8124 1.82112 -3.52091 0.481807
240 1 3.26242 -15.8826 -3.60138 -3.51758 0.0872561
241 1 2.9595 -14.1909 -1.79388 -3.50893 0.069279
242 1 2.65392 -12.4673 0.0136208 -3.54297 0.124793
243 1 2.39033 -10.6638 1.82112 -3.53026 0.0822413
244 1 4.77292 -13.8442 -3.60138 -3.5309 0.0197018
245 1 4.44352 -12.0942 -1.79388 -3.53613 0.0171583
246 1 4.09926 -10.3065 0.0136215 -3.54526 0.019182
247 1 3.7482 -8.49166 1.82112 -3.5413 0.0159103
248 1 6.205 -11.7261 -3.60138 -3.5386 0.00197177
249 1 5.84719 -9.94591 -1.79388 -3.5429 0.00195997
250 1 5.49357 -8.15874 0.0136216 -3.54396 0.0028573
251 1 5.14774 -6.37414 1.82112 -3.53901 0.0040215
252 1 7.6089 -9.59111 -3.60138 -3.54077 0.000183559
253 1 7.25693 -7.81301 -1.79388 -3.5411 0.000291883
254 1 6.90767 -6.03293 0.0136216 -3.54041 0.000374902
255 1 6.55321 -4.25408 1.82112 -3.53856 0.00220092
256 1 9.02165 -7.46171 -3.60138 -3.54006 5.37219e-05
257 1 8.66852 -5.68268 -1.79388 -3.54024 0.000150106
258 1 8.31133 -3.9021 0.0136217 -3.54016 0.000250281
259 1 7.94736 -2.12417 1.82112 -3.53991 0.00090019
260 1 10.4298 -5.32915 -3.60138 -3.54021 3.56288e-05
261 1 10.0716 -3.5492 -1.79388 -3.54046 4.81809e-05
262 1 9.71079 -1.77081 0.0136217 -3.54024 0.000196731
263 1 9.34775 0.00350712 1.82112 -3.53963 0.000385752
264 1 11.8344 -3.19592 -3.60138 -3.54031 1.54724e-05
265 1 11.475 -1.41764 -1.79388 -3.54015 4.08509e-05
266 1 11.1135 0.359102 0.0136224 -3.53983 0.000134983
267 1 10.7484 2.13415 1.82112 -3.53976 0.00020743
268 1 13.2396 -1.0639 -3.60138 -3.54011 1.65977e-05
269 1 12.8785 0.713844 -1.79388 -3.54008 5.39789e-05
270 1 12.5147 2.49032 0.0136225 -3.54017 0.000166631
271 1 12.1493 4.26426 1.82112 -3.54034 0.000358445
272 1 14.6445 1.06745 -3.60138 -3.54025 5.92885e-05
273 1 14.2832 2.84353 -1.79388 -3.54032 0.000145162
274 1 13.922 4.61694 0.0136226 -3.54028 0.000194174
275 1 13.5623 6.38702 1.82112 -3.54007 0.000126886
276 1 16.0538 3.19509 -3.60138 -3.5403 8.61086e-05
277 1 15.6958 4.96804 -1.79388 -3.54019 7.44521e-05
278 1 15.3388 6.73869 0.0136227 -3.54004 4.8305e-05
279 1 14.9824 8.50759 1.82112 -3.53999 3.43327e-05
280 1 17.4698 5.3188 -3.60138 -3.54017 2.8507e-05
281 1 17.1143 7.08999 -1.79388 -3.54012 2.43815e-05
282 1 16.759 8.85981 0.0136228 -3.54014 2.85845e-05
283 1 16.4041 10.6283 1.82112 -3.54021 3.9218e-05
284 1 18.8894 7.44106 -3.60138 -3.54019 1.60553e-05
285 1 18.5353 9.21129 -1.79388 -3.54021 2.23957e-05
286 1 18.1819 10.9802 0.013623 -3.54021 2.58322e-05
287 1 17.8296 12.7477 1.82112 -3.54016 2.11305e-05
288 1 20.3114 9.56247 -3.60138 -3.54022 1.24228e-05
289 1 19.9591 11.3317 -1.79388 -3.54018 1.2879e-05
290 1 19.6076 13.1 0.0136237 -3.54012 1.71667e-05
291 1 19.2567 14.8677 1.82112 -3.54006 3.24403e-05
292 1 21.7355 11.6836 -3.60138 -3.54017 8.98066e-06
293 1 21.3841 13.4528 -1.79388 -3.54012 1.81289e-05
294 1 21.0328 15.2218 0.0136239 -3.54009 2.94643e-05
295 1 20.681 16.991 1.82112 -3.5401 3.41199e-05
296 1 23.1592 13.8061 -3.60138 -3.54014 1.65315e-05
297 1 22.8072 15.5762 -1.79388 -3.54013 2.17848e-05
298 1 22.4546 17.3466 0.013624 -3.54014 2.15286e-05
299 1 24.5805 15.9309 -3.60138 -3.54016 1.45236e-05
300 1 24.2272 17.7021 -1.79388 -3.54017 1.3209e-05
301 1 25.9992 18.0576 -3.60138 -3.54018 7.95159e-06
302 1 1.89547 -17.9328 0.0136208 -3.45403 0.632456
303 1 1.37915 -16.1614 1.82112 -3.43936 0.688422
304 1 3.60594 -17.662 -1.79388 -3.54188 0.067602
305 1 3.26242 -15.8826 0.0136209 -3.51758 0.0872561
306 1 2.9595 -14.1909 1.82112 -3.50893 0.069279
307 1 5.388 -17.3639 -3.60138 -3.54411 0.0115674
308 1 5.08236 -15.5985 -1.79388 -3.53545 0.0081823
309 1 4.77292 -13.8442 0.0136215 -3.5309 0.0197018
310 1 4.44352 -12.0942 1.82112 -3.53613 0.0171583
311 1 6.8705 -15.2753 -3.60138 -3.53853 0.00426868
312 1 6.54826 -13.5029 -1.79388 -3.53709 0.00578235
313 1 6.205 -11.7261 0.0136216 -3.5386 0.00197177
314 1 5.84719 -9.94591 1.82112 -3.5429 0.00195997
315 1 8.31022 -13.1536 -3.60138 -3.53973 0.0011136
316 1 7.96291 -11.3714 -1.79388 -3.54011 0.000205427
317 1 7.6089 -9.59111 0.0136216 -3.54077 0.000183559
318 1 7.25693 -7.81301 1.82112 -3.5411 0.000291883
319 1 9.72414 -11.0198 -3.60138 -3.54049 4.62742e-05
320 1 9.3734 -9.24002 -1.79388 -3.54012 1.18827e-05
321 1 9.02165 -7.46171 0.0136217 -3.54006 5.37219e-05
322 1 8.66852 -5.68268 1.82112 -3.54024 0.000150106
323 1 11.1378 -8.88806 -3.60138 -3.54009 2.82853e-05
324 1 10.7852 -7.1088 -1.79388 -3.53997 4.4815e-05
325 1 10.4298 -5.32915 0.0136224 -3.54021 3.56288e-05
326 1 10.0716 -3.5492 1.82112 -3.54046 4.81809e-05
327 1 12.5484 -6.75489 -3.60138 -3.54013 2.4306e-05
328 1 12.1923 -4.97524 -1.79388 -3.54023 1.35958e-05
329 1 11.8344 -3.19592 0.0136224 -3.54031 1.54724e-05
330 1 11.475 -1.41764 1.82112 -3.54015 4.08509e-05
331 1 13.9562 -4.62118 -3.60138 -3.54023 9.75657e-06
332 1 13.5986 -2.8423 -1.79388 -3.54019 7.83003e-06
333 1 13.2396 -1.0639 0.0136225 -3.54011 1.65977e-05
334 1 12.8785 0.713844 1.82112 -3.54008 5.39789e-05
335 1 15.3637 -2.48833 -3.60138 -3.54018 8.54079e-06
336 1 15.0048 -0.710129 -1.79388 -3.54018 1.7978e-05
337 1 14.6445 1.06745 0.0136226 -3.54025 5.92885e-05
338 1 14.2832 2.84353 1.82112 -3.54032 0.000145162
339 1 16.7716 -0.356749 -3.60138 -3.54026 2.97753e-05
340 1 16.4127 1.41995 -1.79388 -3.54031 6.16063e-05
341 1 16.0538 3.19509 0.0136228 -3.5403 8.61086e-05
342 1 15.6958 4.96804 1.82112 -3.54019 7.44521e-05
343 1 18.1827 1.77179 -3.60138 -3.5403 4.37895e-05
344 1 17.8259 3.54608 -1.79388 -3.54025 3.99887e-05
345 1 17.4698 5.3188 0.0136229 -3.54017 2.8507e-05
346 1 17.1143 7.08999 1.82112 -3.54012 2.43815e-05
347 1 19.5987 3.89709 -3.60138 -3.54023 1.8724e-05
348 1 19.2438 5.66964 -1.79388 -3.5402 1.42049e-05
349 1 18.8894 7.44106 0.0136237 -3.54019 1.60553e-05
350 1 18.5353 9.21129 1.82112 -3.54021 2.23957e-05
351 1 21.0179 6.02066 -3.60138 -3.54022 9.07583e-06
352 1 20.6644 7.79208 -1.79388 -3.54023 1.04962e-05
353 1 20.3114 9.56247 0.0136238 -3.54022 1.24228e-05
354 1 19.9591 11.3317 1.82112 -3.54018 1.2879e-05
355 1 22.4395 8.14328 -3.60138 -3.54023 5.30748e-06
356 1 22.0872 9.91383 -1.79388 -3.54021 5.62586e-06
357 1 21.7355 11.6836 0.0136239 -3.54017 8.98066e-06
358 1 21.3841 13.4528 1.82112 -3.54012 1.81289e-05
359 1 23.8624 10.2657 -3.60138 -3.54019 3.87031e-06
360 1 23.5108 12.036 -1.79388 -3.54016 9.03679e-06
361 1 23.1592 13.8061 0.0136241 -3.54014 1.65315e-05
362 1 22.8072 15.5762 1.82112 -3.54013 2.17848e-05
363 1 25.2851 12.389 -3.60138 -3.54017 8.80308e-06
364 1 24.933 14.1599 -1.79388 -3.54016 1.293e-05
365 1 24.5805 15.9309 0.0136242 -3.54016 1.45236e-05
366 1 24.2272 17.7021 1.82112 -3.54017 1.3209e-05
367 1 26.706 14.5141 -3.60138 -3.54018 9.17632e-06
368 1 26.3529 16.2858 -1.79388 -3.54018 9.16449e-06
369 1 25.9992 18.0576 0.0136243 -3.54018 7.95159e-06
370 1 28.1248 16.6407 -3.60138 -3.54019 5.55901e-06
371 1 27.7706 18.4131 -1.79388 -3.5402 4.6551e-06
372 1 3.60594 -17.662 1.82112 -3.54188 0.067602
373 1 5.388 -17.3639 0.0136216 -3.54411 0.0115674
374 1 5.08236 -15.5985 1.82112 -3.53545 0.0081823
375 1 7.18622 -17.0425 -1.79388 -3.54009 0.00203766
376 1 6.8705 -15.2753 0.0136216 -3.53853 0.00426868
377 1 6.54826 -13.5029 1.82112 -3.53709 0.00578235
378 1 8.97608 -16.7016 -3.60138 -3.53917 0.00145618
379 1 8.64657 -14.9319 -1.79388 -3.53934 0.00234138
380 1 8.31022 -13.1536 0.0136217 -3.53973 0.0011136
381 1 7.96291 -11.3714 1.82112 -3.54011 0.000205427
382 1 10.4171 -14.5787 -3.60138 -3.53994 0.000786485
383 1 10.0727 -12.8007 -1.79388 -3.54048 0.000262729
384 1 9.72414 -11.0198 0.0136217 -3.54049 4.62742e-05
385 1 9.3734 -9.24002 1.82112 -3.54012 1.18827e-05
386 1 11.8381 -12.4458 -3.60138 -3.54047 0.000113404
387 1 11.4885 -10.6673 -1.79388 -3.54039 4.88554e-05
388 1 11.1378 -8.88806 0.0136224 -3.54009 2.82853e-05
389 1 10.7852 -7.1088 1.82112 -3.53997 4.4815e-05
390 1 13.2544 -10.3126 -3.60138 -3.54027 5.45717e-05
391 1 12.9023 -8.53423 -1.79388 -3.54016 4.02856e-05
392 1 12.5484 -6.75489 0.0136225 -3.54013 2.4306e-05
393 1 12.1923 -4.97524 1.82112 -3.54023 1.35958e-05
394 1 14.6675 -8.17889 -3.60138 -3.54022 3.26444e-05
395 1 14.3125 -6.40024 -1.79388 -3.54023 1.7941e-05
396 1 13.9562 -4.62118 0.0136226 -3.54023 9.75657e-06
397 1 13.5986 -2.8423 1.82112 -3.54019 7.83003e-06
398 1 16.0779 -6.04497 -3.60138 -3.54025 1.55591e-05
399 1 15.7213 -4.26671 -1.79388 -3.54022 9.88365e-06
400 1 15.3637 -2.48833 0.0136227 -3.54018 8.54079e-06
401 1 15.0048 -0.710129 1.82112 -3.54018 1.7978e-05
402 1 17.4876 -3.91187 -3.60138 -3.54023 1.13301e-05
403 1 17.1299 -2.13423 -1.79388 -3.54023 1.41243e-05
404 1 16.7716 -0.356749 0.0136228 -3.54026 2.97753e-05
405 1 16.4127 1.41995 1.82112 -3.54031 6.16063e-05
406 1 18.8977 -1.78022 -3.60138 -3.54027 2.06102e-05
407 1 18.5401 -0.00381293 -1.79388 -3.5403 3.3506e-05
408 1 18.1827 1.77179 0.013623 -3.5403 4.37895e-05
409 1 17.8259 3.54608 1.82112 -3.54025 3.99887e-05
410 1 20.3103 0.348873 -3.60138 -3.54029 2.7015e-05
411 1 19.9541 2.12346 -1.79388 -3.54027 2.5487e-05
412 1 19.5987 3.89709 0.0136237 -3.54023 1.8724e-05
413 1 19.2438 5.66964 1.82112 -3.5402 1.42049e-05
414 1 21.7265 2.47528 -3.60138 -3.54025 1.46847e-05
415 1 21.3719 4.24836 -1.79388 -3.54023 1.05765e-05
416 1 21.0179 6.02066 0.0136239 -3.54022 9.07583e-06
417 1 20.6644 7.79208 1.82112 -3.54023 1.04962e-05
418 1 23.1456 4.59994 -3.60138 -3.54024 6.81731e-06
419 1 22.7923 6.37196 -1.79388 -3.54024 5.68356e-06
420 1 22.4395 8.14328 0.013624 -3.54023 5.30748e-06
421 1 22.0872 9.91383 1.82112 -3.54021 5.62586e-06
422 1 24.5667 6.72363 -3.60138 -3.54024 2.92148e-06
423 1 24.2143 8.4949 -1.79388 -3.54022 2.35031e-06
424 1 23.8624 10.2657 0.0136241 -3.54019 3.87031e-06
425 1 23.5108 12.036 1.82112 -3.54016 9.03679e-06
426 1 25.9889 8.84707 -3.60138 -3.54021 1.84556e-06
427 1 25.637 10.6181 -1.79388 -3.54019 4.39056e-06
428 1 25.2851 12.389 0.0136243 -3.54017 8.80308e-06
429 1 24.933 14.1599 1.82112 -3.54016 1.293e-05
430 1 27.4108 10.9712 -3.60138 -3.54019 4.89067e-06
431 1 27.0586 12.7426 -1.79388 -3.54018 7.58137e-06
432 1 26.706 14.5141 0.0136244 -3.54018 9.17632e-06
433 1 26.3529 16.2858 1.82112 -3.54018 9.16449e-06
434 1 28.8314 13.0966 -3.60138 -3.54019 5.87743e-06
435 1 28.4784 14.8685 -1.79388 -3.54019 6.07997e-06
436 1 28.1248 16.6407 0.0136245 -3.54019 5.55901e-06
437 1 27.7706 18.4131 1.82112 -3.5402 4.6551e-06
438 1 30.2503 15.2232 -3.60138 -3.5402 3.79437e-06
439 1 29.8963 16.9957 -1.79388 -3.5402 3.29211e-06
440 1 31.6676 17.3508 -3.60138 -3.54021 1.996e-06
441 1 7.18622 -17.0425 1.82112 -3.54009 0.00203766
442 1 8.97608 -16.7016 0.0136217 -3.53917 0.00145618
443 1 8.64657 -14.9319 1.82112 -3.53934 0.00234138
444 1 11.0952 -18.1171 -3.60138 -3.5395 0.000384141
445 1 10.7572 -16.3508 -1.79388 -3.53943 0.000898407
446 1 10.4171 -14.5787 0.0136218 -3.53994 0.000786485
447 1 10.0727 -12.8007 1.82112 -3.54048 0.000262729
448 1 12.5328 -15.9951 -3.60138 -3.53984 0.000380073
449 1 12.1865 -14.2223 -1.79388 -3.54021 0.000232583
450 1 11.8381 -12.4458 0.0136224 -3.54047 0.000113404
451 1 11.4885 -10.6673 1.82112 -3.54039 4.88554e-05
452 1 13.9563 -13.8648 -3.60138 -3.54026 8.416e-05
453 1 13.6056 -12.0896 -1.79388 -3.54033 6.47449e-05
454 1 13.2544 -10.3126 0.0136225 -3.54027 5.45717e-05
455 1 12.9023 -8.53423 1.82112 -3.54016 4.02856e-05
456 1 15.3741 -11.7325 -3.60138 -3.54024 4.07493e-05
457 1 15.0212 -9.95644 -1.79388 -3.54023 4.19476e-05
458 1 14.6675 -8.17889 0.0136226 -3.54022 3.26444e-05
459 1 14.3125 -6.40024 1.82112 -3.54023 1.7941e-05
460 1 16.7886 -9.59937 -3.60138 -3.54023 2.55505e-05
461 1 16.4336 -7.82267 -1.79388 -3.54025 2.20625e-05
462 1 16.0779 -6.04497 0.0136228 -3.54025 1.55591e-05
463 1 15.7213 -4.26671 1.82112 -3.54022 9.88365e-06
464 1 18.2008 -7.46605 -3.60138 -3.54024 1.40113e-05
465 1 17.8445 -5.68926 -1.79388 -3.54024 1.28193e-05
466 1 17.4876 -3.91187 0.0136229 -3.54023 1.13301e-05
467 1 17.1299 -2.13423 1.82112 -3.54023 1.41243e-05
468 1 19.6122 -5.33336 -3.60138 -3.54024 1.06135e-05
469 1 19.2551 -3.55689 -1.79388 -3.54025 1.34546e-05
470 1 18.8977 -1.78022 0.0136237 -3.54027 2.06102e-05
471 1 18.5401 -0.00381293 1.82112 -3.5403 3.3506e-05
472 1 21.0239 -3.202 -3.60138 -3.54027 1.50242e-05
473 1 20.6669 -1.42641 -1.79388 -3.54029 2.19208e-05
474 1 20.3103 0.348873 0.0136238 -3.54029 2.7015e-05
475 1 19.9541 2.12346 1.82112 -3.54027 2.5487e-05
476 1 22.4376 -1.07275 -3.60138 -3.54028 1.81763e-05
477 1 22.0817 0.701524 -1.79388 -3.54027 1.83114e-05
478 1 21.7265 2.47528 0.0136239 -3.54025 1.46847e-05
479 1 21.3719 4.24836 1.82112 -3.54023 1.05765e-05
480 1 23.8541 1.05427 -3.60138 -3.54026 1.17259e-05
481 1 23.4995 2.82735 -1.79388 -3.54025 9.08875e-06
482 1 23.1456 4.59994 0.0136241 -3.54024 6.81731e-06
483 1 22.7923 6.37196 1.82112 -3.54024 5.68356e-06
484 1 25.273 3.1797 -3.60138 -3.54024 5.71149e-06
485 1 24.9195 4.95187 -1.79388 -3.54024 4.1751e-06
486 1 24.5667 6.72363 0.0136242 -3.54024 2.92148e-06
487 1 24.2143 8.4949 1.82112 -3.54022 2.35031e-06
488 1 26.6936 5.30419 -3.60138 -3.54023 2.21593e-06
489 1 26.341 7.07577 -1.79388 -3.54023 1.44999e-06
490 1 25.9889 8.84707 0.0136243 -3.54021 1.84556e-06
491 1 25.637 10.6181 1.82112 -3.54019 4.39056e-06
492 1 28.1152 7.42842 -3.60138 -3.54021 1.19363e-06
493 1 27.763 9.19982 -1.79388 -3.5402 2.42413e-06
494 1 27.4108 10.9712 0.0136245 -3.54019 4.89067e-06
495 1 27.0586 12.7426 1.82112 -3.54018 7.58137e-06
496 1 29.5366 9.55312 -3.60138 -3.5402 2.99833e-06
497 1 29.1841 11.3248 -1.79388 -3.5402 4.73593e-06
498 1 28.8314 13.0966 0.0136246 -3.54019 5.87743e-06
499 1 28.4784 14.8685 1.82112 -3.54019 6.07997e-06
500 1 30.9569 11.6788 -3.60138 -3.5402 4.0143e-06
501 1 30.6038 13.4509 -1.79388 -3.5402 4.11849e-06
502 1 30.2503 15.2232 0.0136247 -3.5402 3.79437e-06
503 1 29.8963 16.9957 1.82112 -3.5402 3.29211e-06
504 1 32.3758 13.8055 -3.60138 -3.5402 2.57306e-06
505 1 32.0219 15.5781 -1.79388 -3.5402 2.30961e-06
506 1 31.6676 17.3508 0.0136248 -3.54021 1.996e-06
507 1 33.7934 15.933 -3.60138 -3.54021 1.57424e-06
508 1 33.4389 17.7059 -1.79388 -3.54022 1.29034e-06
509 1 35.2101 18.0609 -3.60138 -3.54023 7.64009e-07
510 1 11.0952 -18.1171 0.0136224 -3.5395 0.000384141
511 1 10.7572 -16.3508 1.82112 -3.53943 0.000898407
512 1 12.8769 -17.7637 -1.79388 -3.53969 0.000330389
513 1 12.5328 -15.9951 0.0136225 -3.53984 0.000380073
514 1 12.1865 -14.2223 1.82112 -3.54021 0.000232583
515 1 14.6543 -17.4074 -3.60138 -3.53992 0.000182656
516 1 14.306 -15.6375 -1.79388 -3.54009 0.000140555
517 1 13.9563 -13.8648 0.0136226 -3.54026 8.416e-05
518 1 13.6056 -12.0896 1.82112 -3.54033 6.47449e-05
519 1 16.0783 -15.2794 -3.60138 -3.54017 5.62144e-05
520 1 15.7265 -13.5068 -1.79388 -3.54024 4.07335e-05
521 1 15.3741 -11.7325 0.0136227 -3.54024 4.07493e-05
522 1 15.0212 -9.95644 1.82112 -3.54023 4.19476e-05
523 1 17.4968 -13.1487 -3.60138 -3.54021 2.29196e-05
524 1 17.143 -11.3747 -1.79388 -3.54021 2.45501e-05
525 1 16.7886 -9.59937 0.0136228 -3.54023 2.55505e-05
526 1 16.4336 -7.82267 1.82112 -3.54025 2.20625e-05
527 1 18.9121 -11.0168 -3.60138 -3.54021 1.31822e-05
528 1 18.5567 -9.24197 -1.79388 -3.54023 1.39163e-05
529 1 18.2008 -7.46605 0.013623 -3.54024 1.40113e-05
530 1 17.8445 -5.68926 1.82112 -3.54024 1.28193e-05
531 1 20.3254 -8.88458 -3.60138 -3.54023 7.24646e-06
532 1 19.9689 -7.10932 -1.79388 -3.54024 8.84719e-06
533 1 19.6122 -5.33336 0.0136237 -3.54024 1.06135e-05
534 1 19.2551 -3.55689 1.82112 -3.54025 1.34546e-05
535 1 21.7379 -6.75274 -3.60138 -3.54024 6.20437e-06
536 1 21.3809 -4.97754 -1.79388 -3.54025 9.7306e-06
537 1 21.0239 -3.202 0.0136239 -3.54027 1.50242e-05
538 1 20.6669 -1.42641 1.82112 -3.54029 2.19208e-05
539 1 23.1507 -4.62199 -3.60138 -3.54025 9.42356e-06
540 1 22.794 -2.84734 -1.79388 -3.54027 1.4349e-05
541 1 22.4376 -1.07275 0.013624 -3.54028 1.81763e-05
542 1 22.0817 0.701524 1.82112 -3.54027 1.83114e-05
543 1 24.5651 -2.49291 -3.60138 -3.54026 1.17534e-05
544 1 24.2093 -0.719184 -1.79388 -3.54026 1.29975e-05
545 1 23.8541 1.05427 0.0136241 -3.54026 1.17259e-05
546 1 23.4995 2.82735 1.82112 -3.54025 9.08875e-06
547 1 25.9818 -0.365646 -3.60138 -3.54025 8.61332e-06
548 1 25.6271 1.40717 -1.79388 -3.54025 7.3816e-06
549 1 25.273 3.1797 0.0136243 -3.54024 5.71149e-06
550 1 24.9195 4.95187 1.82112 -3.54024 4.1751e-06
551 1 27.4005 1.76022 -3.60138 -3.54024 4.42314e-06
552 1 27.0468 3.53233 -1.79388 -3.54024 3.30135e-06
553 1 26.6936 5.30419 0.0136244 -3.54023 2.21593e-06
554 1 26.341 7.07577 1.82112 -3.54023 1.44999e-06
555 1 28.8207 3.88526 -3.60138 -3.54023 1.69384e-06
556 1 28.4677 5.65692 -1.79388 -3.54022 1.16167e-06
557 1 28.1152 7.42842 0.0136245 -3.54021 1.19363e-06
558 1 27.763 9.19982 1.82112 -3.5402 2.42413e-06
559 1 30.2417 6.01005 -3.60138 -3.54021 8.40661e-07
560 1 29.889 7.78157 -1.79388 -3.54021 1.50428e-06
561 1 29.5366 9.55312 0.0136247 -3.5402 2.99833e-06
562 1 29.1841 11.3248 1.82112 -3.5402 4.73593e-06
563 1 31.6626 8.13516 -3.60138 -3.54021 1.91307e-06
564 1 31.3098 9.90688 -1.79388 -3.5402 3.20827e-06
565 1 30.9569 11.6788 0.0136248 -3.5402 4.0143e-06
566 1 30.6038 13.4509 1.82112 -3.5402 4.11849e-06
567 1 33.0827 10.261 -3.60138 -3.54021 2.96057e-06
568 1 32.7293 12.0331 -1.79388 -3.5402 2.88728e-06
569 1 32.3758 13.8055 0.0136249 -3.5402 2.57306e-06
570 1 32.0219 15.5781 1.82112 -3.5402 2.30961e-06
571 1 34.5015 12.3878 -3.60138 -3.5402 1.61659e-06
572 1 34.1476 14.1603 -1.79388 -3.5402 1.52345e-06
573 1 33.7934 15.933 0.0136249 -3.54021 1.57424e-06
574 1 33.4389 17.7059 1.82112 -3.54022 1.29034e-06
575 1 35.9193 14.5151 -3.60137 -3.54021 1.23252e-06
576 1 35.5649 16.2879 -1.79387 -3.54022 1.38302e-06
577 1 35.2101 18.0609 0.013625 -3.54023 7.64009e-07
578 1 37.3363 16.6428 -3.60137 -3.54024 1.25786e-06