ITEM: TIMESTEP
0
ITEM: NUMBER OF ATOMS
2504
ITEM: BOX BOUNDS xy xz yz mm pp pp
-5.5498871899999997e+01 5.5498871899999997e+01 0.0000000000000000e+00
-1.8432957300000002e+01 1.8432957300000002e+01 0.0000000000000000e+00
-3.6150000000000002e+00 3.6150000000000002e+00 0.0000000000000000e+00
ITEM: ATOMS id type x y z c_eng c_csym
1 1 0.630006 16.781 -3.59783 -3.43813 3.50259
2 1 0.293112 -18.2651 -1.79033 -3.27954 9.00426
3 1 0.975481 13.0595 -3.59783 -3.50423 0.288135
4 1 0.840556 14.8191 -1.79033 -3.50397 0.581353
5 1 0.630006 16.781 0.0171746 -3.43813 3.50259
6 1 0.293112 -18.2651 1.82467 -3.27954 9.00426
7 1 2.56777 15.1848 -3.59783 -3.54005 0.118092
8 1 2.28042 17.0271 -1.79033 -3.51846 0.0870001
9 1 3.96571 17.3825 -3.59783 -3.54378 0.0308926
10 1 0.481127 7.39337 -3.59783 -3.52323 0.522209
11 1 0.140485 9.13354 -1.79033 -3.40785 1.53844
12 1 1.78742 9.59172 -3.59783 -3.51186 0.151231
13 1 1.31097 11.3615 -1.79033 -3.51392 0.26074
14 1 0.975481 13.0595 0.0171747 -3.50423 0.288135
15 1 0.840556 14.8191 1.82467 -3.50397 0.581353
16 1 3.17351 11.6909 -3.59783 -3.52749 0.0296127
17 1 2.87224 13.4084 -1.79033 -3.51775 0.0604012
18 1 2.56777 15.1848 0.0171747 -3.54005 0.118092
19 1 2.28042 17.0271 1.82467 -3.51846 0.0870001
20 1 4.66796 13.7818 -3.59782 -3.5337 0.0125845
21 1 4.32582 15.5585 -1.79033 -3.53773 0.0173431
22 1 3.96571 17.3825 0.0171748 -3.54378 0.0308926
23 1 6.08057 15.9317 -3.59782 -3.54115 0.00353904
24 1 5.71927 17.7207 -1.79032 -3.54504 0.0160708
25 1 7.50754 18.0565 -3.59782 -3.54176 0.00417371
26 1 1.1196 3.78368 -3.59783 -3.54052 0.0654963
27 1 0.810811 5.57287 -1.79033 -3.54531 0.0264677
28 1 0.481127 7.39337 0.0171746 -3.52323 0.522098
29 1 0.140485 9.13354 1.82467 -3.40881 1.53844
30 1 2.56324 5.94603 -3.59783 -3.54113 0.0165291
31 1 2.21891 7.74225 -1.79033 -3.52456 0.0360138
32 1 1.78742 9.59172 0.0171748 -3.51186 0.151231
33 1 1.31097 11.3615 1.82467 -3.51394 0.26074
34 1 3.93221 8.13577 -3.59783 -3.54258 0.0126059
35 1 3.53433 9.93195 -1.79033 -3.5428 0.0464123
36 1 3.17351 11.6909 0.0171748 -3.52749 0.0296127
37 1 2.87224 13.4084 1.82467 -3.51775 0.0604012
38 1 5.33114 10.2688 -3.59782 -3.54141 0.00683419
39 1 4.99884 12.0231 -1.79032 -3.5344 0.00560776
40 1 4.66796 13.7818 0.0171756 -3.5337 0.0125845
41 1 4.32582 15.5585 1.82467 -3.53773 0.0173431
42 1 6.78951 12.3776 -3.59782 -3.5378 0.00254309
43 1 6.44184 14.1485 -1.79032 -3.538 0.00193356
44 1 6.08057 15.9317 0.0171756 -3.54115 0.00353904
45 1 5.71927 17.7207 1.82468 -3.54504 0.0160708
46 1 8.21216 14.5111 -3.59782 -3.54055 0.000497292
47 1 7.85426 16.2859 -1.79032 -3.54162 0.00304665
48 1 7.50754 18.0565 0.0171756 -3.54176 0.00417371
49 1 9.6412 16.6332 -3.59782 -3.5408 0.00111178
50 1 9.30311 18.3961 -1.79032 -3.53983 0.000647974
51 1 0.501418 -1.84522 -3.59783 -3.52765 0.344955
52 1 0.171746 -0.126174 -1.79033 -3.44495 0.874271
53 1 1.91271 0.285082 -3.59783 -3.53005 0.047128
54 1 1.50261 2.0396 -1.79033 -3.53099 0.0445541
55 1 1.1196 3.78368 0.0171747 -3.54052 0.0653857
56 1 0.810811 5.57287 1.82467 -3.54445 0.0264677
57 1 3.29098 2.42751 -3.59783 -3.53536 0.00363533
58 1 2.92349 4.17767 -1.79033 -3.5367 0.00474024
59 1 2.56324 5.94603 0.0171747 -3.54113 0.0165291
60 1 2.21891 7.74225 1.82467 -3.5247 0.0360138
61 1 4.69915 4.56542 -3.59782 -3.53754 0.00163486
62 1 4.32494 6.33685 -1.79032 -3.53777 0.00472511
63 1 3.93221 8.13577 0.0171748 -3.54258 0.0126059
64 1 3.53433 9.93195 1.82467 -3.5428 0.0464123
65 1 6.08028 6.72335 -3.59782 -3.54097 0.00238944
66 1 5.6949 8.50066 -1.79032 -3.54337 0.0098902
67 1 5.33114 10.2688 0.0171756 -3.54141 0.00683419
68 1 4.99884 12.0231 1.82468 -3.5344 0.00560776
69 1 7.4828 8.8563 -3.59782 -3.54085 0.002307
70 1 7.13163 10.6155 -1.79032 -3.5389 0.000784739
71 1 6.78951 12.3776 0.0171756 -3.5378 0.00254309
72 1 6.44184 14.1485 1.82468 -3.538 0.00193356
73 1 8.92097 10.9723 -3.59782 -3.53904 0.000450371
74 1 8.56884 12.7383 -1.79032 -3.53943 0.000468961
75 1 8.21216 14.5111 0.0171757 -3.54055 0.000497292
76 1 7.85426 16.2859 1.82468 -3.54162 0.00304665
77 1 10.3469 13.0982 -3.59782 -3.54036 0.000121987
78 1 9.991 14.8666 -1.79032 -3.54097 0.000773386
79 1 9.6412 16.6332 0.0171757 -3.5408 0.00111178
80 1 9.30311 18.3961 1.82468 -3.53983 0.000647974
81 1 11.7765 15.2186 -3.59782 -3.54054 0.000343385
82 1 11.4316 16.9811 -1.79032 -3.54004 0.000206703
83 1 13.2192 17.3325 -3.59782 -3.53977 0.000160593
84 1 1.17361 -5.38923 -3.59783 -3.53485 0.113024
85 1 0.836118 -3.6424 -1.79033 -3.55033 0.0469376
86 1 0.501418 -1.84522 0.0171746 -3.52765 0.344844
87 1 0.171746 -0.126174 1.82467 -3.44513 0.874271
88 1 2.6244 -3.24542 -3.59783 -3.54282 0.0134802
89 1 2.2824 -1.49807 -1.79033 -3.5344 0.0144297
90 1 1.91271 0.285082 0.0171748 -3.53005 0.0470727
91 1 1.50261 2.0396 1.82467 -3.53129 0.0445541
92 1 4.04683 -1.1029 -3.59782 -3.54176 0.00215341
93 1 3.66923 0.662169 -1.79032 -3.54056 0.00135592
94 1 3.29098 2.42751 0.0171748 -3.53536 0.00363533
95 1 2.92349 4.17767 1.82467 -3.53684 0.00474024
96 1 5.44023 1.0404 -3.59782 -3.54122 0.000315845
97 1 5.06959 2.80146 -1.79032 -3.53911 0.000332413
98 1 4.69915 4.56542 0.0171756 -3.53754 0.00163486
99 1 4.32494 6.33685 1.82468 -3.53777 0.00472511
100 1 6.84104 3.17748 -3.59782 -3.53949 0.000386375
101 1 6.4651 4.94665 -1.79032 -3.53908 0.000521062
102 1 6.08028 6.72335 0.0171756 -3.54097 0.00238944
103 1 5.6949 8.50066 1.82468 -3.54337 0.0098902
104 1 8.23031 5.32062 -3.59782 -3.54051 0.000755872
105 1 7.85162 7.09119 -1.79032 -3.5413 0.00255948
106 1 7.4828 8.8563 0.0171756 -3.54085 0.002307
107 1 7.13163 10.6155 1.82468 -3.5389 0.000784739
108 1 9.63367 7.4498 -3.59782 -3.54046 0.000904278
109 1 9.27372 9.21122 -1.79032 -3.53957 0.000225773
110 1 8.92097 10.9723 0.0171757 -3.53904 0.000450371
111 1 8.56884 12.7383 1.82468 -3.53943 0.000468961
112 1 11.0597 9.56773 -3.59782 -3.53952 7.33715e-05
113 1 10.7036 11.3314 -1.79032 -3.53968 7.3495e-05
114 1 10.3469 13.0982 0.0171757 -3.54036 0.000121987
115 1 9.991 14.8666 1.82468 -3.54097 0.000773386
116 1 12.4844 11.689 -3.59782 -3.54013 3.93857e-05
117 1 12.1285 13.4543 -1.79032 -3.54051 0.000212649
118 1 11.7765 15.2186 0.0171765 -3.54054 0.000343385
119 1 11.4316 16.9811 1.82468 -3.54004 0.000206703
120 1 13.9125 13.8077 -3.59782 -3.54031 0.000114677
121 1 13.5635 15.5704 -1.79032 -3.54011 7.58835e-05
122 1 13.2192 17.3325 0.0171766 -3.53977 0.000160593
123 1 15.3484 15.9234 -3.59782 -3.53993 6.36604e-05
124 1 15.0025 17.6869 -1.79032 -3.53979 0.000183828
125 1 16.7818 18.0432 -3.59782 -3.53992 0.000139146
126 1 0.710958 -10.8953 -3.59783 -3.46297 2.81544
127 1 0.436489 -9.13128 -1.79033 -3.30205 8.15626
128 1 2.08776 -8.79932 -3.59783 -3.49603 0.318005
129 1 1.6373 -7.04155 -1.79033 -3.49085 0.299473
130 1 1.17361 -5.38923 0.0171747 -3.53485 0.112914
131 1 0.836118 -3.6424 1.82467 -3.54956 0.0469376
132 1 3.41007 -6.69286 -3.59783 -3.52868 0.0600174
133 1 3.01501 -4.95885 -1.79033 -3.52853 0.0273486
134 1 2.6244 -3.24542 0.0171747 -3.54282 0.0134802
135 1 2.2824 -1.49807 1.82467 -3.5346 0.0144297
136 1 4.80057 -4.59596 -3.59782 -3.53501 0.0134985
137 1 4.42555 -2.8517 -1.79032 -3.53585 0.00557924
138 1 4.04683 -1.1029 0.0171755 -3.54176 0.00215341
139 1 3.66923 0.662169 1.82468 -3.54062 0.00135592
140 1 6.19775 -2.47956 -3.59782 -3.53782 0.00375722
141 1 5.81864 -0.719122 -1.79032 -3.54005 0.00102071
142 1 5.44023 1.0404 0.0171756 -3.54122 0.000315845
143 1 5.06959 2.80146 1.82468 -3.53911 0.000332413
144 1 7.58818 -0.350872 -3.59782 -3.53953 0.0012089
145 1 7.21438 1.41324 -1.79032 -3.53968 0.000452884
146 1 6.84104 3.17748 0.0171756 -3.53949 0.000386375
147 1 6.4651 4.94665 1.82468 -3.53908 0.000521062
148 1 8.98332 1.77982 -3.59782 -3.53938 0.000528346
149 1 8.60882 3.54947 -1.79032 -3.53966 0.000310678
150 1 8.23031 5.32062 0.0171757 -3.54051 0.000755872
151 1 7.85162 7.09119 1.82468 -3.5413 0.00255948
152 1 10.3763 3.9138 -3.59782 -3.54009 0.000497305
153 1 10.0027 5.68398 -1.79032 -3.54059 0.000944241
154 1 9.63367 7.4498 0.0171757 -3.54046 0.000904278
155 1 9.27372 9.21122 1.82468 -3.53957 0.000225773
156 1 11.7799 6.04007 -3.59782 -3.54023 0.000500554
157 1 11.4176 7.80502 -1.79032 -3.53987 0.000202317
158 1 11.0597 9.56773 0.0171765 -3.53952 7.33715e-05
159 1 10.7036 11.3314 1.82468 -3.53968 7.3495e-05
160 1 13.1991 8.15896 -3.59782 -3.5398 8.68788e-05
161 1 12.8415 9.9239 -1.79032 -3.53981 3.76238e-05
162 1 12.4844 11.689 0.0171766 -3.54013 3.93857e-05
163 1 12.1285 13.4543 1.82468 -3.54051 0.000212649
164 1 14.6216 10.2783 -3.59782 -3.54007 5.22159e-05
165 1 14.2658 12.0437 -1.79032 -3.54025 8.55885e-05
166 1 13.9125 13.8077 0.0171766 -3.54031 0.000114677
167 1 13.5635 15.5704 1.82468 -3.54011 7.58835e-05
168 1 16.0476 12.3963 -3.59782 -3.5402 6.07641e-05
169 1 15.6965 14.1603 -1.79032 -3.54011 3.99725e-05
170 1 15.3484 15.9234 0.0171767 -3.53993 6.36604e-05
171 1 15.0025 17.6869 1.82468 -3.53979 0.000183828
172 1 17.4787 14.513 -3.59782 -3.54002 3.86455e-05
173 1 17.13 16.2777 -1.79032 -3.53993 8.56922e-05
174 1 16.7818 18.0432 0.0171768 -3.53992 0.000139146
175 1 18.9084 16.6329 -3.59782 -3.53999 7.7051e-05
176 1 18.5581 18.4004 -1.79032 -3.54003 8.46826e-05
177 1 1.00524 -14.5317 -3.59783 -3.48691 0.45554
178 1 0.895169 -12.7896 -1.79033 -3.52459 0.457222
179 1 0.710958 -10.8953 0.0171746 -3.46298 2.81544
180 1 0.436489 -9.13128 1.82467 -3.30053 8.15626
181 1 2.66391 -12.4607 -3.59783 -3.54269 0.126112
182 1 2.41383 -10.6628 -1.79033 -3.53134 0.0880912
183 1 2.08776 -8.79932 0.0171748 -3.49603 0.31795
184 1 1.6373 -7.04155 1.82467 -3.49146 0.299473
185 1 4.12607 -10.3108 -3.59782 -3.54428 0.0215095
186 1 3.78087 -8.49449 -1.79032 -3.54021 0.0121897
187 1 3.41007 -6.69286 0.0171748 -3.52868 0.0600174
188 1 3.01501 -4.95885 1.82467 -3.52866 0.0273486
189 1 5.51624 -8.15826 -3.59782 -3.54375 0.00273072
190 1 5.1641 -6.36776 -1.79032 -3.5398 0.00463991
191 1 4.80057 -4.59596 0.0171756 -3.53501 0.0134985
192 1 4.42555 -2.8517 1.82468 -3.53585 0.00557924
193 1 6.9205 -6.02855 -3.59782 -3.54083 0.00027739
194 1 6.56537 -4.24938 -1.79032 -3.53861 0.00248441
195 1 6.19775 -2.47956 0.0171756 -3.53782 0.00375722
196 1 5.81864 -0.719122 1.82468 -3.54005 0.00102071
197 1 8.32349 -3.89951 -3.59782 -3.53997 0.000350141
198 1 7.95961 -2.12156 -1.79032 -3.53953 0.00113876
199 1 7.58818 -0.350872 0.0171756 -3.53953 0.0012089
200 1 7.21438 1.41324 1.82468 -3.53968 0.000452884
201 1 9.72004 -1.76738 -3.59782 -3.54009 0.000262305
202 1 9.3538 0.00846645 -1.79032 -3.53961 0.000559476
203 1 8.98332 1.77982 0.0171757 -3.53938 0.000528346
204 1 8.60882 3.54947 1.82468 -3.53966 0.000310678
205 1 11.117 0.364695 -3.59782 -3.53984 0.000195562
206 1 10.7487 2.14055 -1.79032 -3.53973 0.000325625
207 1 10.3763 3.9138 0.0171765 -3.54009 0.000497305
208 1 10.0027 5.68398 1.82468 -3.54059 0.000944241
209 1 12.5141 2.49663 -3.59782 -3.54013 0.000256522
210 1 12.1465 4.27063 -1.79032 -3.54027 0.000486413
211 1 11.7799 6.04007 0.0171765 -3.54023 0.000500554
212 1 11.4176 7.80502 1.82468 -3.53987 0.000202317
213 1 13.9192 4.62293 -3.59782 -3.54023 0.00026965
214 1 13.5581 6.39257 -1.79032 -3.54001 0.000192424
215 1 13.1991 8.15896 0.0171766 -3.5398 8.68788e-05
216 1 12.8415 9.9239 1.82468 -3.53981 3.76238e-05
217 1 15.3353 6.74365 -3.59782 -3.54001 8.0392e-05
218 1 14.9782 8.51171 -1.79032 -3.53995 5.9142e-05
219 1 14.6216 10.2783 0.0171767 -3.54007 5.22159e-05
220 1 14.2658 12.0437 1.82468 -3.54025 8.55885e-05
221 1 16.7561 8.86324 -3.59782 -3.54011 4.77328e-05
222 1 16.4012 10.6306 -1.79032 -3.54018 5.93957e-05
223 1 16.0476 12.3963 0.0171767 -3.5402 6.07641e-05
224 1 15.6965 14.1603 1.82468 -3.54011 3.99725e-05
225 1 18.1805 10.9818 -3.59782 -3.54019 3.87549e-05
226 1 17.8287 12.748 -1.79032 -3.54013 3.20796e-05
227 1 17.4787 14.513 0.0171768 -3.54002 3.86455e-05
228 1 17.13 16.2777 1.82468 -3.53993 8.56922e-05
229 1 19.6082 13.0999 -3.59782 -3.54009 2.65144e-05
230 1 19.2582 14.8664 -1.79032 -3.54002 4.90169e-05
231 1 18.9084 16.6329 0.0171769 -3.53999 7.7051e-05
232 1 18.5581 18.4004 1.82468 -3.54003 8.46826e-05
233 1 21.0352 15.2203 -3.59782 -3.54006 4.58834e-05
234 1 20.6842 16.9887 -1.79032 -3.54006 5.47695e-05
235 1 22.4582 17.3445 -3.59782 -3.54012 3.4961e-05
236 1 1.89416 -17.9185 -3.59783 -3.45238 0.616591
237 1 1.37395 -16.1411 -1.79033 -3.44165 0.676577
238 1 1.00524 -14.5317 0.0171747 -3.48691 0.45554
239 1 0.895169 -12.7896 1.82467 -3.52459 0.457222
240 1 3.25887 -15.8703 -3.59783 -3.51751 0.0925667
241 1 2.95908 -14.1792 -1.79033 -3.50894 0.0634528
242 1 2.66391 -12.4607 0.0171747 -3.54269 0.126112
243 1 2.41383 -10.6628 1.82467 -3.53141 0.0880912
244 1 4.7797 -13.8421 -3.59782 -3.53051 0.0203045
245 1 4.46024 -12.0955 -1.79032 -3.53536 0.0208699
246 1 4.12607 -10.3108 0.0171755 -3.54428 0.0215095
247 1 3.78087 -8.49449 1.82468 -3.54027 0.0121897
248 1 6.22352 -11.7309 -3.59782 -3.53793 0.00344162
249 1 5.87052 -9.9497 -1.79032 -3.54222 0.0018057
250 1 5.51624 -8.15826 0.0171756 -3.54375 0.00273072
251 1 5.1641 -6.36776 1.82468 -3.5398 0.00463991
252 1 7.6264 -9.59361 -3.59782 -3.54063 0.00013406
253 1 7.27237 -7.8115 -1.79032 -3.54144 0.000375622
254 1 6.9205 -6.02855 0.0171756 -3.54083 0.00027739
255 1 6.56537 -4.24938 1.82468 -3.53861 0.00248441
256 1 9.03348 -7.46107 -3.59782 -3.54027 1.64541e-05
257 1 8.68006 -5.68047 -1.79032 -3.54032 9.67772e-05
258 1 8.32349 -3.89951 0.0171757 -3.53997 0.000350141
259 1 7.95961 -2.12156 1.82468 -3.53953 0.00113876
260 1 10.4401 -5.3283 -3.59782 -3.54012 4.7831e-05
261 1 10.082 -3.54719 -1.79032 -3.54026 6.84489e-05
262 1 9.72004 -1.76738 0.0171757 -3.54009 0.000262305
263 1 9.3538 0.00846645 1.82468 -3.53961 0.000559476
264 1 11.8422 -3.19385 -3.59782 -3.54021 2.52742e-05
265 1 11.4811 -1.41367 -1.79032 -3.54012 6.87135e-05
266 1 11.117 0.364695 0.0171765 -3.53984 0.000195562
267 1 10.7487 2.14055 1.82468 -3.53973 0.000325625
268 1 13.2432 -1.05987 -3.59782 -3.54012 3.14535e-05
269 1 12.88 0.719341 -1.79032 -3.54008 9.44615e-05
270 1 12.5141 2.49663 0.0171766 -3.54013 0.000256522
271 1 12.1465 4.27063 1.82468 -3.54027 0.000486413
272 1 14.6448 1.0725 -3.59782 -3.54024 9.58626e-05
273 1 14.2819 2.84934 -1.79032 -3.54029 0.000205796
274 1 13.9192 4.62293 0.0171766 -3.54023 0.00026965
275 1 13.5581 6.39257 1.82468 -3.54001 0.000192424
276 1 16.0522 3.20018 -3.59782 -3.54029 0.000122884
277 1 15.6932 4.97332 -1.79032 -3.54017 0.000112252
278 1 15.3353 6.74365 0.0171767 -3.54001 8.0392e-05
279 1 14.9782 8.51171 1.82468 -3.53995 5.9142e-05
280 1 17.4675 5.3232 -3.59782 -3.54016 4.69621e-05
281 1 17.1116 7.09412 -1.79032 -3.5401 4.20137e-05
282 1 16.7561 8.86324 0.0171768 -3.54011 4.77328e-05
283 1 16.4012 10.6306 1.82468 -3.54018 5.93957e-05
284 1 18.8875 7.44426 -3.59782 -3.54018 2.68297e-05
285 1 18.5336 9.21388 -1.79032 -3.54019 3.50276e-05
286 1 18.1805 10.9818 0.0171769 -3.54019 3.87549e-05
287 1 17.8287 12.748 1.82468 -3.54013 3.20796e-05
288 1 20.3107 9.5642 -3.59782 -3.54021 1.90434e-05
289 1 19.959 11.3327 -1.79032 -3.54017 1.99446e-05
290 1 19.6082 13.0999 0.0171777 -3.54009 2.65144e-05
291 1 19.2582 14.8664 1.82468 -3.54002 4.90169e-05
292 1 21.7364 11.6839 -3.59782 -3.54015 1.40431e-05
293 1 21.3858 13.4522 -1.79032 -3.54009 2.79683e-05
294 1 21.0352 15.2203 0.0171778 -3.54006 4.58834e-05
295 1 20.6842 16.9887 1.82468 -3.54006 5.47695e-05
296 1 23.1616 13.8052 -3.59782 -3.54012 2.58722e-05
297 1 22.8103 15.5747 -1.79032 -3.54011 3.47025e-05
298 1 22.4582 17.3445 0.0171779 -3.54012 3.4961e-05
299 1 24.5838 15.9295 -3.59782 -3.54014 2.33463e-05
300 1 24.2309 17.7004 -1.79032 -3.54015 2.13218e-05
301 1 26.0027 18.0562 -3.59782 -3.54017 1.27015e-05
302 1 1.89416 -17.9185 0.0171748 -3.45238 0.616591
303 1 1.37395 -16.1411 1.82467 -3.44165 0.676577
304 1 3.6015 -17.6528 -1.79033 -3.54118 0.0719778
305 1 3.25887 -15.8703 0.0171748 -3.51751 0.0925667
306 1 2.95908 -14.1792 1.82467 -3.50894 0.0634528
307 1 5.38313 -17.3604 -3.59782 -3.54425 0.0135442
308 1 5.08166 -15.5942 -1.79032 -3.53562 0.00807944
309 1 4.7797 -13.8421 0.0171756 -3.53051 0.0203045
310 1 4.46024 -12.0955 1.82468 -3.53536 0.0208699
311 1 6.87363 -15.2777 -3.59782 -3.53848 0.00458195
312 1 6.55914 -13.5067 -1.79032 -3.53671 0.00726736
313 1 6.22352 -11.7309 0.0171756 -3.53793 0.00344162
314 1 5.87052 -9.9497 1.82468 -3.54222 0.0018057
315 1 8.3221 -13.1601 -3.59782 -3.53935 0.00190899
316 1 7.97922 -11.3768 -1.79032 -3.5397 0.00044632
317 1 7.6264 -9.59361 0.0171756 -3.54063 0.00013406
318 1 7.27237 -7.8115 1.82468 -3.54144 0.000375622
319 1 9.73688 -11.0249 -3.59782 -3.54037 9.56441e-05
320 1 9.38614 -9.24212 -1.79032 -3.54023 2.99191e-05
321 1 9.03348 -7.46107 0.0171757 -3.54027 1.64541e-05
322 1 8.68006 -5.68047 1.82468 -3.54032 9.67772e-05
323 1 11.1475 -8.89047 -3.59782 -3.54018 2.76912e-05
324 1 10.795 -7.1093 -1.79032 -3.54002 2.9956e-05
325 1 10.4401 -5.3283 0.0171765 -3.54012 4.7831e-05
326 1 10.082 -3.54719 1.82468 -3.54026 6.84489e-05
327 1 12.5565 -6.75608 -3.59782 -3.54009 3.30965e-05
328 1 12.2007 -4.97488 -1.79032 -3.54013 2.46263e-05
329 1 11.8422 -3.19385 0.0171765 -3.54021 2.52742e-05
330 1 11.4811 -1.41367 1.82468 -3.54012 6.87135e-05
331 1 13.9623 -4.62082 -3.59782 -3.54016 1.73588e-05
332 1 13.6038 -2.8401 -1.79032 -3.54015 1.57059e-05
333 1 13.2432 -1.05987 0.0171766 -3.54012 3.14535e-05
334 1 12.88 0.719341 1.82468 -3.54008 9.44615e-05
335 1 15.3667 -2.48612 -3.59782 -3.54017 1.68345e-05
336 1 15.0066 -0.706333 -1.79032 -3.54019 3.50804e-05
337 1 14.6448 1.0725 0.0171767 -3.54024 9.58626e-05
338 1 14.2819 2.84934 1.82468 -3.54029 0.000205796
339 1 16.772 -0.353346 -3.59782 -3.54027 4.9187e-05
340 1 16.412 1.42438 -1.79032 -3.54031 9.10099e-05
341 1 16.0522 3.20018 0.0171767 -3.54029 0.000122884
342 1 15.6932 4.97332 1.82468 -3.54017 0.000112252
343 1 18.1815 1.77554 -3.59782 -3.5403 6.45201e-05
344 1 17.8241 3.55033 -1.79032 -3.54025 6.05432e-05
345 1 17.4675 5.3232 0.0171768 -3.54016 4.69621e-05
346 1 17.1116 7.09412 1.82468 -3.5401 4.20137e-05
347 1 19.5969 3.90049 -3.59782 -3.54023 3.02777e-05
348 1 19.2419 5.6731 -1.79032 -3.54019 2.43066e-05
349 1 18.8875 7.44426 0.0171777 -3.54018 2.68297e-05
350 1 18.5336 9.21388 1.82468 -3.54019 3.50276e-05
351 1 21.0165 6.02321 -3.59782 -3.54023 1.51181e-05
352 1 20.6633 7.79435 -1.79032 -3.54022 1.66552e-05
353 1 20.3107 9.5642 0.0171778 -3.54021 1.90434e-05
354 1 19.959 11.3327 1.82468 -3.54017 1.99446e-05
355 1 22.4391 8.1447 -3.59782 -3.54023 8.22531e-06
356 1 22.0874 9.91476 -1.79032 -3.5402 8.76195e-06
357 1 21.7364 11.6839 0.0171778 -3.54015 1.40431e-05
358 1 21.3858 13.4522 1.82468 -3.54009 2.79683e-05
359 1 23.8634 10.2659 -3.59782 -3.54019 6.08944e-06
360 1 23.5125 12.0357 -1.79032 -3.54015 1.40832e-05
361 1 23.1616 13.8052 0.0171779 -3.54012 2.58722e-05
362 1 22.8103 15.5747 1.82468 -3.54011 3.47025e-05
363 1 25.2873 12.3884 -3.59782 -3.54016 1.38215e-05
364 1 24.9358 14.1589 -1.79032 -3.54014 2.05205e-05
365 1 24.5838 15.9295 0.017178 -3.54014 2.33463e-05
366 1 24.2309 17.7004 1.82468 -3.54015 2.13218e-05
367 1 26.709 14.5129 -3.59782 -3.54017 1.46656e-05
368 1 26.3562 16.2844 -1.79032 -3.54017 1.47215e-05
369 1 26.0027 18.0562 0.0171781 -3.54017 1.27015e-05
370 1 28.128 16.6395 -3.59782 -3.54019 8.90015e-06
371 1 27.7739 18.4119 -1.79032 -3.54019 7.37803e-06
372 1 3.6015 -17.6528 1.82467 -3.54118 0.0719778
373 1 5.38313 -17.3604 0.0171756 -3.54425 0.0135442
374 1 5.08166 -15.5942 1.82468 -3.53562 0.00807944
375 1 7.18321 -17.0444 -1.79032 -3.54027 0.00244707
376 1 6.87363 -15.2777 0.0171756 -3.53848 0.00458195
377 1 6.55914 -13.5067 1.82468 -3.53671 0.00726736
378 1 8.97603 -16.7071 -3.59782 -3.53915 0.00173163
379 1 8.65238 -14.9382 -1.79032 -3.53914 0.00304155
380 1 8.3221 -13.1601 0.0171757 -3.53935 0.00190899
381 1 7.97922 -11.3768 1.82468 -3.5397 0.00044632
382 1 10.424 -14.5865 -3.59782 -3.53974 0.00125081
383 1 10.0834 -12.8078 -1.79032 -3.54025 0.00054027
384 1 9.73688 -11.0249 0.0171757 -3.54037 9.56441e-05
385 1 9.38614 -9.24212 1.82468 -3.54023 2.99191e-05
386 1 11.8469 -12.4525 -3.59782 -3.5404 0.000213037
387 1 11.4981 -10.672 -1.79032 -3.54042 8.41371e-05
388 1 11.1475 -8.89047 0.0171765 -3.54018 2.76912e-05
389 1 10.795 -7.1093 1.82468 -3.54002 2.9956e-05
390 1 13.2619 -10.317 -3.59782 -3.54032 7.73916e-05
391 1 12.91 -8.53697 -1.79032 -3.54019 4.80649e-05
392 1 12.5565 -6.75608 0.0171766 -3.54009 3.30965e-05
393 1 12.2007 -4.97488 1.82468 -3.54013 2.46263e-05
394 1 14.6737 -8.18163 -3.59782 -3.54021 4.77089e-05
395 1 14.3189 -6.40155 -1.79032 -3.54018 2.99056e-05
396 1 13.9623 -4.62082 0.0171766 -3.54016 1.73588e-05
397 1 13.6038 -2.8401 1.82468 -3.54015 1.57059e-05
398 1 16.0825 -6.04603 -3.59782 -3.54022 2.56703e-05
399 1 15.7253 -4.2662 -1.79032 -3.5402 1.70956e-05
400 1 15.3667 -2.48612 0.0171767 -3.54017 1.68345e-05
401 1 15.0066 -0.706333 1.82468 -3.54019 3.50804e-05
402 1 17.4899 -3.91118 -3.59782 -3.54023 1.94374e-05
403 1 17.1314 -2.13212 -1.79032 -3.54023 2.56064e-05
404 1 16.772 -0.353346 0.0171768 -3.54027 4.9187e-05
405 1 16.412 1.42438 1.82468 -3.54031 9.10099e-05
406 1 18.8979 -1.77828 -3.59782 -3.54028 3.38977e-05
407 1 18.5396 -0.000864706 -1.79032 -3.5403 5.13431e-05
408 1 18.1815 1.77554 0.0171769 -3.5403 6.45201e-05
409 1 17.8241 3.55033 1.82468 -3.54025 6.05432e-05
410 1 20.3092 0.351352 -3.59782 -3.5403 4.10889e-05
411 1 19.9527 2.12652 -1.79032 -3.54028 3.90357e-05
412 1 19.5969 3.90049 0.0171777 -3.54023 3.02777e-05
413 1 19.2419 5.6731 1.82468 -3.54019 2.43066e-05
414 1 21.725 2.47766 -3.59782 -3.54026 2.34196e-05
415 1 21.3704 4.25093 -1.79032 -3.54024 1.75677e-05
416 1 21.0165 6.02321 0.0171778 -3.54023 1.51181e-05
417 1 20.6633 7.79435 1.82468 -3.54022 1.66552e-05
418 1 23.1444 4.60176 -3.59782 -3.54024 1.11712e-05
419 1 22.7914 6.37367 -1.79032 -3.54024 9.09436e-06
420 1 22.4391 8.1447 0.0171779 -3.54023 8.22531e-06
421 1 22.0874 9.91476 1.82468 -3.5402 8.76195e-06
422 1 24.5664 6.72461 -3.59782 -3.54024 4.57951e-06
423 1 24.2146 8.49558 -1.79032 -3.54022 3.67258e-06
424 1 23.8634 10.2659 0.017178 -3.54019 6.08944e-06
425 1 23.5125 12.0357 1.82468 -3.54015 1.40832e-05
426 1 25.9897 8.84715 -3.59782 -3.54021 2.92093e-06
427 1 25.6385 10.6179 -1.79032 -3.54018 6.89181e-06
428 1 25.2873 12.3884 0.017178 -3.54016 1.38215e-05
429 1 24.9358 14.1589 1.82468 -3.54014 2.05205e-05
430 1 27.4127 10.9705 -3.59782 -3.54018 7.69726e-06
431 1 27.0611 12.7417 -1.79032 -3.54017 1.1999e-05
432 1 26.709 14.5129 0.0171781 -3.54017 1.46656e-05
433 1 26.3562 16.2844 1.82468 -3.54017 1.47215e-05
434 1 28.8341 13.0955 -3.59782 -3.54018 9.34722e-06
435 1 28.4813 14.8674 -1.79032 -3.54018 9.74618e-06
436 1 28.128 16.6395 0.0171782 -3.54019 8.90015e-06
437 1 27.7739 18.4119 1.82468 -3.54019 7.37803e-06
438 1 30.2532 15.2222 -3.59782 -3.54019 6.11025e-06
439 1 29.8993 16.9947 -1.79032 -3.5402 5.24831e-06
440 1 31.6704 17.3499 -3.59782 -3.54021 3.13217e-06
441 1 7.18321 -17.0444 1.82468 -3.54027 0.00244707
442 1 8.97603 -16.7071 0.0171757 -3.53915 0.00173163
443 1 8.65238 -14.9382 1.82468 -3.53914 0.00304155
444 1 11.0938 -18.1228 -3.59782 -3.53942 0.000485337
445 1 10.7597 -16.3579 -1.79032 -3.53929 0.00121736
446 1 10.424 -14.5865 0.0171757 -3.53974 0.00125081
447 1 10.0834 -12.8078 1.82468 -3.54025 0.00054027
448 1 12.5369 -16.0024 -3.59782 -3.5397 0.000599196
449 1 12.1934 -14.2299 -1.79032 -3.54008 0.0004314
450 1 11.8469 -12.4525 0.0171765 -3.5404 0.000213037
451 1 11.4981 -10.672 1.82468 -3.54042 8.41371e-05
452 1 13.9625 -13.8715 -3.59782 -3.5402 0.000158206
453 1 13.6127 -12.0955 -1.79032 -3.54034 0.000107949
454 1 13.2619 -10.317 0.0171766 -3.54032 7.73916e-05
455 1 12.91 -8.53697 1.82468 -3.54019 4.80649e-05
456 1 15.3798 -11.7375 -3.59782 -3.54026 6.12668e-05
457 1 15.0272 -9.96043 -1.79032 -3.54025 5.9008e-05
458 1 14.6737 -8.18163 0.0171767 -3.54021 4.77089e-05
459 1 14.3189 -6.40155 1.82468 -3.54018 2.99056e-05
460 1 16.7935 -9.60279 -3.59782 -3.54022 3.84244e-05
461 1 16.4385 -7.82506 -1.79032 -3.54022 3.51727e-05
462 1 16.0825 -6.04603 0.0171767 -3.54022 2.56703e-05
463 1 15.7253 -4.2662 1.82468 -3.5402 1.70956e-05
464 1 18.2044 -7.46787 -3.59782 -3.54023 2.26682e-05
465 1 17.8475 -5.68992 -1.79032 -3.54023 2.08195e-05
466 1 17.4899 -3.91118 0.0171768 -3.54023 1.94374e-05
467 1 17.1314 -2.13212 1.82468 -3.54023 2.56064e-05
468 1 19.6139 -5.33361 -3.59782 -3.54025 1.73783e-05
469 1 19.2561 -3.55605 -1.79032 -3.54026 2.27254e-05
470 1 18.8979 -1.77828 0.0171777 -3.54028 3.38977e-05
471 1 18.5396 -0.000864706 1.82468 -3.5403 5.13431e-05
472 1 21.024 -3.20107 -3.59782 -3.54028 2.44587e-05
473 1 20.6665 -1.42466 -1.79032 -3.5403 3.43752e-05
474 1 20.3092 0.351352 0.0171778 -3.5403 4.10889e-05
475 1 19.9527 2.12652 1.82468 -3.54028 3.90357e-05
476 1 22.4367 -1.07122 -3.59782 -3.54029 2.82281e-05
477 1 22.0805 0.703544 -1.79032 -3.54028 2.84222e-05
478 1 21.725 2.47766 0.0171778 -3.54026 2.34196e-05
479 1 21.3704 4.25093 1.82468 -3.54024 1.75677e-05
480 1 23.8528 1.05586 -3.59782 -3.54026 1.86003e-05
481 1 23.4982 2.82911 -1.79032 -3.54025 1.47456e-05
482 1 23.1444 4.60176 0.0171779 -3.54024 1.11712e-05
483 1 22.7914 6.37367 1.82468 -3.54024 9.09436e-06
484 1 25.272 3.18091 -3.59782 -3.54025 9.23773e-06
485 1 24.9188 4.95303 -1.79032 -3.54025 6.69317e-06
486 1 24.5664 6.72461 0.017178 -3.54024 4.57951e-06
487 1 24.2146 8.49558 1.82468 -3.54022 3.67258e-06
488 1 26.6934 5.30478 -3.59782 -3.54024 3.50441e-06
489 1 26.3413 7.07615 -1.79032 -3.54023 2.27849e-06
490 1 25.9897 8.84715 0.0171781 -3.54021 2.92093e-06
491 1 25.6385 10.6179 1.82468 -3.54018 6.89181e-06
492 1 28.1159 7.42833 -3.59782 -3.54021 1.89931e-06
493 1 27.7643 9.19947 -1.79032 -3.5402 3.83497e-06
494 1 27.4127 10.9705 0.0171782 -3.54018 7.69726e-06
495 1 27.0611 12.7417 1.82468 -3.54017 1.1999e-05
496 1 29.5382 9.55247 -3.59782 -3.5402 4.72758e-06
497 1 29.1863 11.3239 -1.79032 -3.54019 7.46519e-06
498 1 28.8341 13.0955 0.0171783 -3.54018 9.34722e-06
499 1 28.4813 14.8674 1.82468 -3.54018 9.74618e-06
500 1 30.9592 11.6778 -3.59782 -3.5402 6.33577e-06
501 1 30.6064 13.4499 -1.79032 -3.54019 6.59968e-06
502 1 30.2532 15.2222 0.0171783 -3.54019 6.11025e-06
503 1 29.8993 16.9947 1.82468 -3.5402 5.24831e-06
504 1 32.3784 13.8045 -3.59782 -3.5402 4.20413e-06
505 1 32.0246 15.5771 -1.79032 -3.5402 3.72605e-06
506 1 31.6704 17.3499 0.0171784 -3.54021 3.13217e-06
507 1 33.7959 15.9321 -3.59782 -3.54021 2.46348e-06
508 1 33.4413 17.7051 -1.79032 -3.54022 1.94659e-06
509 1 35.2122 18.0603 -3.59782 -3.54023 1.10591e-06
510 1 11.0938 -18.1228 0.0171765 -3.53942 0.000485337
511 1 10.7597 -16.3579 1.82468 -3.53929 0.00121736
512 1 12.878 -17.7699 -1.79032 -3.53957 0.000455622
513 1 12.5369 -16.0024 0.0171766 -3.5397 0.000599196
514 1 12.1934 -14.2299 1.82468 -3.54008 0.0004314
515 1 14.6571 -17.4133 -3.59782 -3.53982 0.000282345
516 1 14.3107 -15.6443 -1.79032 -3.53999 0.000247559
517 1 13.9625 -13.8715 0.0171766 -3.5402 0.000158206
518 1 13.6127 -12.0955 1.82468 -3.54034 0.000107949
519 1 16.083 -15.2851 -3.59782 -3.54012 0.000100955
520 1 15.7319 -13.5125 -1.79032 -3.54022 6.93069e-05
521 1 15.3798 -11.7375 0.0171767 -3.54026 6.12668e-05
522 1 15.0272 -9.96043 1.82468 -3.54025 5.9008e-05
523 1 17.5015 -13.1533 -3.59782 -3.54021 3.51519e-05
524 1 17.1478 -11.3789 -1.79032 -3.54022 3.58051e-05
525 1 16.7935 -9.60279 0.0171768 -3.54022 3.84244e-05
526 1 16.4385 -7.82506 1.82468 -3.54022 3.51727e-05
527 1 18.9162 -11.0201 -3.59782 -3.54021 1.98753e-05
528 1 18.5606 -9.24467 -1.79032 -3.54022 2.21117e-05
529 1 18.2044 -7.46787 0.0171769 -3.54023 2.26682e-05
530 1 17.8475 -5.68992 1.82468 -3.54023 2.08195e-05
531 1 20.3284 -8.88654 -3.59782 -3.54022 1.17014e-05
532 1 19.9714 -7.11053 -1.79032 -3.54023 1.42269e-05
533 1 19.6139 -5.33361 0.0171777 -3.54025 1.73783e-05
534 1 19.2561 -3.55605 1.82468 -3.54026 2.27254e-05
535 1 21.7394 -6.75337 -3.59782 -3.54024 1.00341e-05
536 1 21.3818 -4.97743 -1.79032 -3.54026 1.60011e-05
537 1 21.024 -3.20107 0.0171778 -3.54028 2.44587e-05
538 1 20.6665 -1.42466 1.82468 -3.5403 3.43752e-05
539 1 23.1509 -4.62159 -3.59782 -3.54026 1.52559e-05
540 1 22.7936 -2.84636 -1.79032 -3.54028 2.27356e-05
541 1 22.4367 -1.07122 0.0171779 -3.54029 2.82281e-05
542 1 22.0805 0.703544 1.82468 -3.54028 2.84222e-05
543 1 24.5644 -2.49195 -3.59782 -3.54027 1.84556e-05
544 1 24.2082 -0.717878 -1.79032 -3.54027 2.03502e-05
545 1 23.8528 1.05586 0.017178 -3.54026 1.86003e-05
546 1 23.4982 2.82911 1.82468 -3.54025 1.47456e-05
547 1 25.9807 -0.364576 -3.59782 -3.54026 1.3634e-05
548 1 25.626 1.40835 -1.79032 -3.54025 1.18397e-05
549 1 25.272 3.18091 0.017178 -3.54025 9.23773e-06
550 1 24.9188 4.95303 1.82468 -3.54025 6.69317e-06
551 1 27.3997 1.76104 -3.59782 -3.54024 7.11199e-06
552 1 27.0462 3.53307 -1.79032 -3.54024 5.29326e-06
553 1 26.6934 5.30478 0.0171781 -3.54024 3.50441e-06
554 1 26.3413 7.07615 1.82468 -3.54023 2.27849e-06
555 1 28.8205 3.8856 -3.59782 -3.54023 2.69144e-06
556 1 28.4679 5.65706 -1.79032 -3.54023 1.82988e-06
557 1 28.1159 7.42833 0.0171782 -3.54021 1.89931e-06
558 1 27.7643 9.19947 1.82468 -3.5402 3.83497e-06
559 1 30.2423 6.00985 -3.59782 -3.54021 1.3413e-06
560 1 29.8902 7.78114 -1.79032 -3.5402 2.40354e-06
561 1 29.5382 9.55247 0.0171783 -3.5402 4.72758e-06
562 1 29.1863 11.3239 1.82468 -3.54019 7.46519e-06
563 1 31.664 8.1345 -3.59782 -3.5402 3.02172e-06
564 1 31.3117 9.90605 -1.79032 -3.5402 5.01351e-06
565 1 30.9592 11.6778 0.0171784 -3.5402 6.33577e-06
566 1 30.6064 13.4499 1.82468 -3.54019 6.59968e-06
567 1 33.0847 10.2601 -3.59782 -3.5402 4.59321e-06
568 1 32.7317 12.0322 -1.79032 -3.5402 4.62533e-06
569 1 32.3784 13.8045 0.0171784 -3.5402 4.20413e-06
570 1 32.0246 15.5771 1.82468 -3.5402 3.72605e-06
571 1 34.5038 12.3868 -3.59782 -3.5402 2.73671e-06
572 1 34.15 14.1593 -1.79032 -3.5402 2.53771e-06
573 1 33.7959 15.9321 0.0171785 -3.54021 2.46348e-06
574 1 33.4413 17.7051 1.82468 -3.54022 1.94659e-06
575 1 35.9216 14.5143 -3.59782 -3.54021 1.93355e-06
576 1 35.5672 16.2872 -1.79032 -3.54022 1.99085e-06
577 1 35.2122 18.0603 0.0171785 -3.54023 1.10591e-06
578 1 37.3384 16.6422 -3.59782 -3.54024 1.642e-06