ITEM: TIMESTEP
0
ITEM: NUMBER OF ATOMS
2504
ITEM: BOX BOUNDS xy xz yz mm pp pp
-5.5498871899999997e+01 5.5498871899999997e+01 0.0000000000000000e+00
-1.8432957300000002e+01 1.8432957300000002e+01 0.0000000000000000e+00
-3.6150000000000002e+00 3.6150000000000002e+00 0.0000000000000000e+00
ITEM: ATOMS id type x y z c_eng c_csym
1 1 0.634489 16.7446 -3.60612 -3.44199 3.61355
2 1 0.2886 -18.3074 -1.79862 -3.28458 9.10848
3 1 1.0009 13.033 -3.60612 -3.49293 0.355514
4 1 0.868397 14.7857 -1.79862 -3.50383 0.587884
5 1 0.634489 16.7446 0.00888188 -3.44199 3.61355
6 1 0.2886 -18.3074 1.81638 -3.28458 9.10848
7 1 2.59087 15.1714 -3.60612 -3.54142 0.120395
8 1 2.28998 17.0053 -1.79862 -3.52157 0.0789766
9 1 3.98057 17.3714 -3.60612 -3.54537 0.0291691
10 1 0.557483 7.43963 -3.60612 -3.50606 1.69651
11 1 0.209656 9.21224 -1.79862 -3.32621 4.70659
12 1 1.842 9.6255 -3.60612 -3.4869 0.349595
13 1 1.35352 11.385 -1.79862 -3.48245 0.414584
14 1 1.0009 13.033 0.00888209 -3.49293 0.355514
15 1 0.868397 14.7857 1.81638 -3.50383 0.587884
16 1 3.22299 11.7049 -3.60612 -3.52232 0.0439969
17 1 2.91514 13.4108 -1.79862 -3.51284 0.0738375
18 1 2.59087 15.1714 0.00888219 -3.54142 0.120395
19 1 2.28998 17.0053 1.81638 -3.52157 0.0789766
20 1 4.70608 13.7891 -3.60612 -3.53298 0.0140389
21 1 4.3517 15.5593 -1.79862 -3.53811 0.0122962
22 1 3.98057 17.3714 0.00888229 -3.54537 0.0291691
23 1 6.10636 15.9366 -3.60612 -3.5409 0.00246301
24 1 5.73786 17.7194 -1.79862 -3.54482 0.012477
25 1 7.52409 18.062 -3.60612 -3.54128 0.00243849
26 1 1.07544 3.78584 -3.60612 -3.51651 0.21879
27 1 0.853012 5.5538 -1.79862 -3.53247 0.198515
28 1 0.557483 7.43963 0.00888188 -3.50606 1.69648
29 1 0.209656 9.21224 1.81638 -3.32662 4.70659
30 1 2.58853 5.9434 -3.60612 -3.54198 0.0552617
31 1 2.25816 7.75343 -1.79862 -3.52395 0.0444775
32 1 1.842 9.6255 0.00888222 -3.4869 0.349595
33 1 1.35352 11.385 1.81638 -3.48245 0.414584
34 1 3.96325 8.13931 -3.60612 -3.54471 0.0182813
35 1 3.57713 9.9417 -1.79862 -3.54302 0.0483997
36 1 3.22299 11.7049 0.00888233 -3.52232 0.0439969
37 1 2.91514 13.4108 1.81638 -3.51284 0.0738375
38 1 5.3676 10.2705 -3.60612 -3.54242 0.00602668
39 1 5.04045 12.0285 -1.79862 -3.53459 0.00761412
40 1 4.70608 13.7891 0.00888279 -3.53298 0.0140389
41 1 4.3517 15.5593 1.81638 -3.53811 0.0122962
42 1 6.82282 12.3803 -3.60612 -3.53827 0.00299656
43 1 6.47309 14.1545 -1.79862 -3.53818 0.00183363
44 1 6.10636 15.9366 0.00888284 -3.5409 0.00246301
45 1 5.73786 17.7194 1.81638 -3.54482 0.012477
46 1 8.23752 14.5158 -3.60612 -3.54073 0.000400373
47 1 7.87654 16.2921 -1.79862 -3.54145 0.00228729
48 1 7.52409 18.062 0.00888294 -3.54128 0.00243849
49 1 9.65768 16.6408 -3.60612 -3.54077 0.000675064
50 1 9.31347 18.4064 -1.79862 -3.5397 0.00028598
51 1 0.567979 -1.78829 -3.60612 -3.51209 1.51828
52 1 0.225825 -0.0266007 -1.79862 -3.34234 4.12122
53 1 1.9068 0.362389 -3.60612 -3.50337 0.259126
54 1 1.45264 2.11403 -1.79862 -3.49536 0.274881
55 1 1.07544 3.78584 0.00888209 -3.51651 0.218761
56 1 0.853012 5.5538 1.81638 -3.53208 0.198515
57 1 3.28375 2.46411 -3.60612 -3.52718 0.0249907
58 1 2.94165 4.18694 -1.79862 -3.52449 0.0327031
59 1 2.58853 5.9434 0.00888219 -3.54198 0.0552617
60 1 2.25816 7.75343 1.81638 -3.52401 0.0444775
61 1 4.72222 4.57269 -3.60612 -3.53479 0.00725797
62 1 4.35125 6.34019 -1.79862 -3.53802 0.00635545
63 1 3.96325 8.13931 0.00888229 -3.54471 0.0182813
64 1 3.57713 9.9417 1.81638 -3.54302 0.0483997
65 1 6.10621 6.72436 -3.60612 -3.54077 0.00229198
66 1 5.72525 8.50109 -1.79862 -3.5439 0.00956556
67 1 5.3676 10.2705 0.00888283 -3.54242 0.00602668
68 1 5.04045 12.0285 1.81638 -3.53459 0.00761412
69 1 7.51129 8.85396 -3.60612 -3.5408 0.00176642
70 1 7.16357 10.6149 -1.79862 -3.53913 0.00100529
71 1 6.82282 12.3803 0.00888294 -3.53827 0.00299656
72 1 6.47309 14.1545 1.81638 -3.53818 0.00183363
73 1 8.94767 10.9706 -3.60612 -3.53911 0.000615003
74 1 8.59561 12.74 -1.79862 -3.5397 0.000540886
75 1 8.23752 14.5158 0.00888299 -3.54073 0.000400373
76 1 7.87654 16.2921 1.81638 -3.54145 0.00228729
77 1 10.368 13.0993 -3.60612 -3.54047 8.58894e-05
78 1 10.0106 14.8711 -1.79862 -3.54106 0.000557477
79 1 9.65768 16.6408 0.00888309 -3.54077 0.000675064
80 1 9.31347 18.4064 1.81638 -3.5397 0.00028598
81 1 11.79 15.2237 -3.60612 -3.54059 0.00020553
82 1 11.4412 16.9903 -1.79862 -3.54012 9.09492e-05
83 1 13.2224 17.3427 -3.60612 -3.53992 8.10194e-05
84 1 1.10338 -5.4081 -3.60612 -3.5102 0.250151
85 1 0.866102 -3.66205 -1.79862 -3.53697 0.201161
86 1 0.567979 -1.78829 0.00888188 -3.51209 1.51825
87 1 0.225825 -0.0266007 1.81638 -3.34258 4.12122
88 1 2.62016 -3.26013 -3.60612 -3.54399 0.0490209
89 1 2.291 -1.47538 -1.79862 -3.5313 0.0337778
90 1 1.9068 0.362389 0.00888222 -3.50337 0.259111
91 1 1.45264 2.11403 1.81638 -3.49579 0.274881
92 1 4.02253 -1.08864 -3.60612 -3.54527 0.00835908
93 1 3.6469 0.697648 -1.79862 -3.54213 0.0162502
94 1 3.28375 2.46411 0.00888233 -3.52718 0.0249907
95 1 2.94165 4.18694 1.81638 -3.52456 0.0327031
96 1 5.42403 1.04788 -3.60612 -3.54224 0.00169583
97 1 5.07704 2.80941 -1.79862 -3.53686 0.00342305
98 1 4.72222 4.57269 0.00888279 -3.53479 0.00725797
99 1 4.35125 6.34019 1.81638 -3.53802 0.00635545
100 1 6.84948 3.1723 -3.60612 -3.53912 0.00136126
101 1 6.48512 4.94557 -1.79862 -3.53872 0.00108233
102 1 6.10621 6.72436 0.00888284 -3.54077 0.00229198
103 1 5.72525 8.50109 1.81638 -3.5439 0.00956556
104 1 8.24691 5.31281 -3.60612 -3.5407 0.000517401
105 1 7.87517 7.0869 -1.79862 -3.54127 0.00218055
106 1 7.51129 8.85396 0.00888294 -3.5408 0.00176642
107 1 7.16357 10.6149 1.81638 -3.53913 0.00100529
108 1 9.65378 7.44145 -3.60612 -3.54058 0.000611586
109 1 9.29826 9.20627 -1.79862 -3.53955 0.00016316
110 1 8.94767 10.9706 0.00888306 -3.53911 0.000615003
111 1 8.59561 12.74 1.81638 -3.5397 0.000540886
112 1 11.0794 9.56117 -3.60612 -3.5396 9.53331e-05
113 1 10.7248 11.3288 -1.79862 -3.53975 0.000111543
114 1 10.368 13.0993 0.00888314 -3.54047 8.58894e-05
115 1 10.0106 14.8711 1.81638 -3.54106 0.000557477
116 1 12.5002 11.6859 -3.60612 -3.54021 1.55773e-05
117 1 12.1439 13.4553 -1.79862 -3.54056 0.000133013
118 1 11.79 15.2237 0.00888366 -3.54059 0.00020553
119 1 11.4412 16.9903 1.81638 -3.54012 9.09492e-05
120 1 13.9223 13.809 -3.60612 -3.54037 6.23543e-05
121 1 13.5708 15.5761 -1.79862 -3.54019 3.32667e-05
122 1 13.2224 17.3427 0.00888382 -3.53992 8.10194e-05
123 1 15.3501 15.9295 -3.60612 -3.54005 2.68421e-05
124 1 15.0004 17.6972 -1.79862 -3.53997 7.38391e-05
125 1 16.7761 18.0529 -3.60612 -3.54007 4.18634e-05
126 1 0.676361 -10.9187 -3.60612 -3.45536 3.23105
127 1 0.362761 -9.13375 -1.79862 -3.29881 8.56534
128 1 1.99734 -8.78578 -3.60612 -3.48121 0.464185
129 1 1.5223 -7.03245 -1.79862 -3.46589 0.465606
130 1 1.10338 -5.4081 0.00888209 -3.5102 0.250122
131 1 0.866102 -3.66205 1.81638 -3.53659 0.201161
132 1 3.34534 -6.70266 -3.60612 -3.52436 0.0621247
133 1 2.98899 -4.98818 -1.79862 -3.52028 0.0394129
134 1 2.62016 -3.26013 0.00888219 -3.54399 0.0490209
135 1 2.291 -1.47538 1.81638 -3.53139 0.0337778
136 1 4.77468 -4.61529 -3.60612 -3.53368 0.0122978
137 1 4.40329 -2.86184 -1.79862 -3.53744 0.00438502
138 1 4.02253 -1.08864 0.00888268 -3.54527 0.00835908
139 1 3.6469 0.697648 1.81638 -3.54215 0.0162502
140 1 6.16697 -2.48511 -3.60612 -3.5392 0.00185788
141 1 5.78925 -0.717092 -1.79862 -3.54229 0.00228811
142 1 5.42403 1.04788 0.00888283 -3.54224 0.00169583
143 1 5.07704 2.80941 1.81638 -3.53686 0.00342305
144 1 7.56579 -0.357708 -3.60612 -3.54016 0.000685244
145 1 7.20637 1.40572 -1.79862 -3.53955 0.000385021
146 1 6.84948 3.1723 0.00888294 -3.53912 0.00136126
147 1 6.48512 4.94557 1.81638 -3.53872 0.00108233
148 1 8.97992 1.76654 -3.60612 -3.5393 0.000377369
149 1 8.61629 3.5378 -1.79862 -3.53982 0.000240033
150 1 8.24691 5.31281 0.00888299 -3.5407 0.000517401
151 1 7.87517 7.0869 1.81638 -3.54127 0.00218055
152 1 10.3832 3.89944 -3.60612 -3.54033 0.000174575
153 1 10.0167 5.67218 -1.79862 -3.54086 0.000606786
154 1 9.65378 7.44145 0.00888309 -3.54058 0.000611586
155 1 9.29826 9.20627 1.81638 -3.53955 0.00016316
156 1 11.7918 6.0268 -3.60612 -3.54043 0.000248378
157 1 11.434 7.7947 -1.79862 -3.54002 7.66488e-05
158 1 11.0794 9.56117 0.00888359 -3.5396 9.53331e-05
159 1 10.7248 11.3288 1.81638 -3.53975 0.000111543
160 1 13.212 8.14841 -3.60612 -3.53992 2.65298e-05
161 1 12.8565 9.91683 -1.79862 -3.53993 2.37124e-05
162 1 12.5002 11.6859 0.00888372 -3.54021 1.55773e-05
163 1 12.1439 13.4553 1.81638 -3.54056 0.000133013
164 1 14.6322 10.2717 -3.60612 -3.54016 1.19454e-05
165 1 14.2766 12.0408 -1.79862 -3.54033 3.94454e-05
166 1 13.9223 13.809 0.00888386 -3.54037 6.23543e-05
167 1 13.5708 15.5761 1.81638 -3.54019 3.32667e-05
168 1 16.0537 12.3942 -3.60612 -3.54027 2.50845e-05
169 1 15.701 14.1622 -1.79862 -3.54019 1.53851e-05
170 1 15.3501 15.9295 0.00888406 -3.54005 2.68421e-05
171 1 15.0004 17.6972 1.81638 -3.53997 7.38391e-05
172 1 17.4787 14.5156 -3.60612 -3.54011 1.30579e-05
173 1 17.1273 16.2839 -1.79862 -3.54005 3.08531e-05
174 1 16.7761 18.0529 0.00888427 -3.54007 4.18634e-05
175 1 18.9027 16.6389 -3.60612 -3.54011 2.27877e-05
176 1 18.5503 18.4088 -1.79862 -3.54014 2.06167e-05
177 1 1.01629 -14.5863 -3.60612 -3.48206 0.472554
178 1 0.896646 -12.8427 -1.79862 -3.51549 0.518455
179 1 0.676361 -10.9187 0.00888188 -3.45536 3.23105
180 1 0.362761 -9.13375 1.81638 -3.29857 8.56534
181 1 2.6406 -12.476 -3.60612 -3.54312 0.123758
182 1 2.35899 -10.6651 -1.79862 -3.52851 0.0764558
183 1 1.99734 -8.78578 0.00888222 -3.48121 0.46417
184 1 1.5223 -7.03245 1.81638 -3.46634 0.465606
185 1 4.06352 -10.3007 -3.60612 -3.54615 0.019004
186 1 3.70465 -8.48789 -1.79862 -3.54242 0.0246037
187 1 3.34534 -6.70266 0.00888233 -3.52436 0.0621247
188 1 2.98899 -4.98818 1.81638 -3.52034 0.0394129
189 1 5.46334 -8.15938 -3.60612 -3.54401 0.00342715
190 1 5.12593 -6.38263 -1.79862 -3.53772 0.00474042
191 1 4.77468 -4.61529 0.00888279 -3.53368 0.0122978
192 1 4.40329 -2.86184 1.81638 -3.53744 0.00438502
193 1 6.89058 -6.03877 -3.60612 -3.53983 0.000987409
194 1 6.53698 -4.26033 -1.79862 -3.53847 0.0020193
195 1 6.16697 -2.48511 0.00888284 -3.5392 0.00185788
196 1 5.78925 -0.717092 1.81638 -3.54229 0.00228811
197 1 8.29511 -3.90555 -3.60612 -3.54041 0.000204655
198 1 7.93103 -2.12766 -1.79862 -3.54039 0.000899965
199 1 7.56579 -0.357708 0.00888294 -3.54016 0.000685244
200 1 7.20637 1.40572 1.81638 -3.53955 0.000385021
201 1 9.69846 -1.77539 -3.60612 -3.54042 0.000182151
202 1 9.33969 -0.00310532 -1.79862 -3.53961 0.000233614
203 1 8.97992 1.76654 0.00888306 -3.5393 0.000377369
204 1 8.61629 3.5378 1.81638 -3.53982 0.000240033
205 1 11.109 0.351644 -3.60612 -3.53978 9.96435e-05
206 1 10.7481 2.1256 -1.79862 -3.53978 0.000121783
207 1 10.3832 3.89944 0.00888353 -3.54033 0.000174575
208 1 10.0167 5.67218 1.81638 -3.54086 0.000606786
209 1 12.5156 2.4819 -3.60612 -3.54021 7.89608e-05
210 1 12.1532 4.25578 -1.79862 -3.54043 0.00022234
211 1 11.7918 6.0268 0.00888366 -3.54043 0.000248378
212 1 11.434 7.7947 1.81638 -3.54002 7.66488e-05
213 1 13.9257 4.60894 -3.60612 -3.54032 0.00011389
214 1 13.568 6.37961 -1.79862 -3.54013 6.163e-05
215 1 13.212 8.14841 0.00888382 -3.53992 2.65298e-05
216 1 12.8565 9.91683 1.81638 -3.53993 2.37124e-05
217 1 15.3434 6.73208 -3.60612 -3.54008 1.90444e-05
218 1 14.9879 8.50209 -1.79862 -3.54004 1.36403e-05
219 1 14.6322 10.2717 0.00888397 -3.54016 1.19454e-05
220 1 14.2766 12.0408 1.81638 -3.54033 3.94454e-05
221 1 16.7628 8.85525 -3.60612 -3.54017 1.08044e-05
222 1 16.4079 10.6252 -1.79862 -3.54025 1.91151e-05
223 1 16.0537 12.3942 0.00888413 -3.54027 2.50845e-05
224 1 15.701 14.1622 1.81638 -3.54019 1.53851e-05
225 1 18.1838 10.978 -3.60612 -3.54024 1.28328e-05
226 1 17.8307 12.7472 -1.79862 -3.54019 1.01611e-05
227 1 17.4787 14.5156 0.00888435 -3.54011 1.30579e-05
228 1 17.1273 16.2839 1.81638 -3.54005 3.08531e-05
229 1 19.6068 13.1002 -3.60611 -3.54015 7.86287e-06
230 1 19.2548 14.8695 -1.79861 -3.54011 1.5679e-05
231 1 18.9027 16.6389 0.00888459 -3.54011 2.27877e-05
232 1 18.5503 18.4088 1.81638 -3.54014 2.06167e-05
233 1 21.0295 15.2237 -3.60611 -3.54014 1.32159e-05
234 1 20.6768 16.9941 -1.79861 -3.54015 1.41597e-05
235 1 22.4499 17.3493 -3.60611 -3.54017 8.66114e-06
236 1 1.89721 -17.9519 -3.60612 -3.45607 0.654519
237 1 1.38609 -16.1885 -1.79862 -3.43605 0.708284
238 1 1.01629 -14.5863 0.00888209 -3.48206 0.472554
239 1 0.896646 -12.8427 1.81638 -3.51549 0.518455
240 1 3.26714 -15.899 -3.60612 -3.51762 0.0810234
241 1 2.96006 -14.2066 -1.79862 -3.50875 0.0781721
242 1 2.6406 -12.476 0.00888219 -3.54312 0.123758
243 1 2.35899 -10.6651 1.81638 -3.52854 0.0764558
244 1 4.76388 -13.8471 -3.60612 -3.53134 0.0191297
245 1 4.42123 -12.0925 -1.79862 -3.53704 0.0131757
246 1 4.06352 -10.3007 0.00888268 -3.54615 0.019004
247 1 3.70465 -8.48789 1.81638 -3.54244 0.0246037
248 1 6.1803 -11.7196 -3.60612 -3.53938 0.00103523
249 1 5.81609 -9.94086 -1.79862 -3.54362 0.00331404
250 1 5.46334 -8.15938 0.00888283 -3.54401 0.00342715
251 1 5.12593 -6.38263 1.81638 -3.53772 0.00474042
252 1 7.58556 -9.58777 -3.60612 -3.54085 0.000405661
253 1 7.23636 -7.81503 -1.79862 -3.54057 0.000425629
254 1 6.89058 -6.03877 0.00888294 -3.53983 0.000987409
255 1 6.53698 -4.26033 1.81638 -3.53847 0.0020193
256 1 9.00586 -7.46256 -3.60612 -3.53975 0.000213984
257 1 8.65313 -5.68564 -1.79862 -3.54013 0.000269813
258 1 8.29511 -3.90555 0.00888299 -3.54041 0.000204655
259 1 7.93103 -2.12766 1.81638 -3.54039 0.000899965
260 1 10.4162 -5.33029 -3.60612 -3.54032 3.28617e-05
261 1 10.0577 -3.55189 -1.79862 -3.54069 8.99634e-05
262 1 9.69846 -1.77539 0.00888309 -3.54042 0.000182151
263 1 9.33969 -0.00310532 1.81638 -3.53961 0.000233614
264 1 11.824 -3.1987 -3.60612 -3.54043 2.2966e-05
265 1 11.4669 -1.42292 -1.79862 -3.54016 1.97991e-05
266 1 11.109 0.351644 0.00888359 -3.53978 9.96435e-05
267 1 10.7481 2.1256 1.81638 -3.53978 0.000121783
268 1 13.2348 -1.06928 -3.60612 -3.54009 9.03991e-06
269 1 12.8764 0.706514 -1.79862 -3.54007 2.54226e-05
270 1 12.5156 2.4819 0.00888372 -3.54021 7.89608e-05
271 1 12.1532 4.25578 1.81638 -3.54043 0.00022234
272 1 14.6442 1.06072 -3.60612 -3.54025 2.47928e-05
273 1 14.2849 2.83578 -1.79862 -3.54035 8.12769e-05
274 1 13.9257 4.60894 0.00888386 -3.54032 0.00011389
275 1 13.568 6.37961 1.81638 -3.54013 6.163e-05
276 1 16.056 3.18831 -3.60612 -3.54031 4.7368e-05
277 1 15.6993 4.961 -1.79862 -3.54021 3.62787e-05
278 1 15.3434 6.73208 0.00888406 -3.54008 1.90444e-05
279 1 14.9879 8.50209 1.81638 -3.54004 1.36403e-05
280 1 17.4729 5.31293 -3.60612 -3.54018 1.11539e-05
281 1 17.1178 7.08449 -1.79862 -3.54014 8.65107e-06
282 1 16.7628 8.85525 0.00888427 -3.54017 1.08044e-05
283 1 16.4079 10.6252 1.81638 -3.54025 1.91151e-05
284 1 18.8919 7.4368 -3.60612 -3.5402 6.00198e-06
285 1 18.5376 9.20784 -1.79862 -3.54023 9.98736e-06
286 1 18.1838 10.978 0.00888448 -3.54024 1.28328e-05
287 1 17.8307 12.7472 1.81638 -3.54019 1.01611e-05
288 1 20.3124 9.56017 -3.60611 -3.54023 5.82569e-06
289 1 19.9593 11.3305 -1.79861 -3.5402 5.88463e-06
290 1 19.6068 13.1002 0.00888508 -3.54015 7.86287e-06
291 1 19.2548 14.8695 1.81639 -3.54011 1.5679e-05
292 1 21.7343 11.6833 -3.60611 -3.54018 3.98557e-06
293 1 21.3819 13.4536 -1.79861 -3.54015 8.32395e-06
294 1 21.0295 15.2237 0.0088853 -3.54014 1.32159e-05
295 1 20.6768 16.9941 1.81639 -3.54015 1.41597e-05
296 1 23.156 13.8073 -3.60611 -3.54017 7.32033e-06
297 1 22.8032 15.5782 -1.79861 -3.54016 9.21991e-06
298 1 22.4499 17.3493 0.00888548 -3.54017 8.66114e-06
299 1 24.5761 15.9328 -3.60611 -3.54018 6.00236e-06
300 1 24.2224 17.7044 -1.79861 -3.54019 5.39948e-06
301 1 25.9945 18.0596 -3.60611 -3.5402 3.34094e-06
302 1 1.89721 -17.9519 0.00888222 -3.45607 0.654519
303 1 1.38609 -16.1885 1.81638 -3.43605 0.708284
304 1 3.61187 -17.6743 -1.79862 -3.54273 0.0620317
305 1 3.26714 -15.899 0.00888233 -3.51762 0.0810234
306 1 2.96006 -14.2066 1.81638 -3.50875 0.0781721
307 1 5.39449 -17.3684 -3.60612 -3.5439 0.00922416
308 1 5.08329 -15.6043 -1.79862 -3.53517 0.00869999
309 1 4.76388 -13.8471 0.00888279 -3.53134 0.0191297
310 1 4.42123 -12.0925 1.81638 -3.53704 0.0131757
311 1 6.86633 -15.2722 -3.60612 -3.53859 0.00394407
312 1 6.53376 -13.4979 -1.79862 -3.53754 0.00417072
313 1 6.1803 -11.7196 0.00888284 -3.53938 0.00103523
314 1 5.81609 -9.94086 1.81638 -3.54362 0.00331404
315 1 8.29439 -13.1449 -3.60612 -3.54017 0.000443339
316 1 7.94117 -11.3642 -1.79862 -3.54058 0.000320265
317 1 7.58556 -9.58777 0.00888294 -3.54085 0.000405661
318 1 7.23636 -7.81503 1.81638 -3.54057 0.000425629
319 1 9.70716 -11.0131 -3.60612 -3.54061 6.81333e-05
320 1 9.35641 -9.23723 -1.79862 -3.53994 2.98938e-05
321 1 9.00586 -7.46256 0.00888306 -3.53975 0.000213984
322 1 8.65313 -5.68564 1.81638 -3.54013 0.000269813
323 1 11.1248 -8.88484 -3.60612 -3.53994 5.30507e-05
324 1 10.7721 -7.10814 -1.79862 -3.53991 7.82345e-05
325 1 10.4162 -5.33029 0.00888353 -3.54032 3.28617e-05
326 1 10.0577 -3.55189 1.81638 -3.54069 8.99634e-05
327 1 12.5375 -6.75331 -3.60612 -3.54018 1.64652e-05
328 1 12.1812 -4.97572 -1.79862 -3.54036 1.60429e-05
329 1 11.824 -3.1987 0.00888366 -3.54043 2.2966e-05
330 1 11.4669 -1.42292 1.81638 -3.54016 1.97991e-05
331 1 13.948 -4.62164 -3.60612 -3.54029 7.24863e-06
332 1 13.5916 -2.84524 -1.79862 -3.54021 2.33238e-06
333 1 13.2348 -1.06928 0.00888382 -3.54009 9.03991e-06
334 1 12.8764 0.706514 1.81638 -3.54007 2.54226e-05
335 1 15.3596 -2.49128 -3.60612 -3.54017 2.36646e-06
336 1 15.0025 -0.715191 -1.79862 -3.54017 5.34686e-06
337 1 14.6442 1.06072 0.00888397 -3.54025 2.47928e-05
338 1 14.2849 2.83578 1.81638 -3.54035 8.12769e-05
339 1 16.771 -0.361287 -3.60612 -3.54025 1.16136e-05
340 1 16.4135 1.41404 -1.79862 -3.54031 3.13815e-05
341 1 16.056 3.18831 0.00888413 -3.54031 4.7368e-05
342 1 15.6993 4.961 1.81638 -3.54021 3.62787e-05
343 1 18.1843 1.76679 -3.60612 -3.54029 2.23901e-05
344 1 17.8283 3.5404 -1.79862 -3.54025 1.92283e-05
345 1 17.4729 5.31293 0.00888435 -3.54018 1.11539e-05
346 1 17.1178 7.08449 1.81638 -3.54014 8.65107e-06
347 1 19.601 3.89256 -3.60611 -3.54022 7.63743e-06
348 1 19.2463 5.66502 -1.79861 -3.5402 4.97111e-06
349 1 18.8919 7.4368 0.00888498 -3.5402 6.00198e-06
350 1 18.5376 9.20784 1.81638 -3.54023 9.98736e-06
351 1 21.0198 6.01726 -3.60611 -3.54022 3.40743e-06
352 1 20.6659 7.78905 -1.79861 -3.54023 4.49641e-06
353 1 20.3124 9.56017 0.00888521 -3.54023 5.82569e-06
354 1 19.9593 11.3305 1.81639 -3.5402 5.88463e-06
355 1 22.44 8.14139 -3.60611 -3.54023 2.41523e-06
356 1 22.087 9.91259 -1.79861 -3.54022 2.53067e-06
357 1 21.7343 11.6833 0.00888542 -3.54018 3.98557e-06
358 1 21.3819 13.4536 1.81639 -3.54015 8.32395e-06
359 1 23.8612 10.2653 -3.60611 -3.5402 1.69089e-06
360 1 23.5086 12.0364 -1.79861 -3.54018 4.04399e-06
361 1 23.156 13.8073 0.0088856 -3.54017 7.32033e-06
362 1 22.8032 15.5782 1.81639 -3.54016 9.21991e-06
363 1 25.2822 12.3899 -3.60611 -3.54019 3.86587e-06
364 1 24.9293 14.1613 -1.79861 -3.54018 5.52458e-06
365 1 24.5761 15.9328 0.00888577 -3.54018 6.00236e-06
366 1 24.2224 17.7044 1.81639 -3.54019 5.39948e-06
367 1 26.702 14.5156 -3.60611 -3.54019 3.85002e-06
368 1 26.3485 16.2875 -1.79861 -3.5402 3.7943e-06
369 1 25.9945 18.0596 0.008886 -3.5402 3.34094e-06
370 1 28.1205 16.6423 -3.60611 -3.5402 2.32163e-06
371 1 27.7662 18.4147 -1.79861 -3.5402 1.99562e-06
372 1 3.61187 -17.6743 1.81638 -3.54273 0.0620317
373 1 5.39449 -17.3684 0.00888283 -3.5439 0.00922416
374 1 5.08329 -15.6043 1.81638 -3.53517 0.00869999
375 1 7.19024 -17.04 -1.79862 -3.53983 0.00165366
376 1 6.86633 -15.2722 0.00888294 -3.53859 0.00394407
377 1 6.53376 -13.4979 1.81638 -3.53754 0.00417072
378 1 8.97614 -16.6943 -3.60612 -3.53918 0.00116528
379 1 8.63881 -14.9235 -1.79862 -3.53957 0.00157349
380 1 8.29439 -13.1449 0.00888299 -3.54017 0.000443339
381 1 7.94117 -11.3642 1.81638 -3.54058 0.000320265
382 1 10.4079 -14.5683 -3.60612 -3.54018 0.000345828
383 1 10.0584 -12.7912 -1.79862 -3.54074 9.10559e-05
384 1 9.70716 -11.0131 0.00888309 -3.54061 6.81333e-05
385 1 9.35641 -9.23723 1.81638 -3.53994 2.98938e-05
386 1 11.8264 -12.437 -3.60612 -3.54054 4.2501e-05
387 1 11.4756 -10.661 -1.79862 -3.54032 2.13429e-05
388 1 11.1248 -8.88484 0.00888359 -3.53994 5.30507e-05
389 1 10.7721 -7.10814 1.81638 -3.53991 7.82345e-05
390 1 13.2444 -10.3068 -3.60612 -3.54019 3.51449e-05
391 1 12.8919 -8.53057 -1.79862 -3.54011 3.65826e-05
392 1 12.5375 -6.75331 0.00888372 -3.54018 1.64652e-05
393 1 12.1812 -4.97572 1.81638 -3.54036 1.60429e-05
394 1 14.6591 -8.17523 -3.60612 -3.54023 1.74569e-05
395 1 14.304 -6.39849 -1.79862 -3.54029 8.98314e-06
396 1 13.948 -4.62164 0.00888386 -3.54029 7.24863e-06
397 1 13.5916 -2.84524 1.81638 -3.54021 2.33238e-06
398 1 16.0717 -6.04355 -3.60612 -3.54028 7.05415e-06
399 1 15.7159 -4.2674 -1.79862 -3.54023 3.64775e-06
400 1 15.3596 -2.49128 0.00888406 -3.54017 2.36646e-06
401 1 15.0025 -0.715191 1.81638 -3.54017 5.34686e-06
402 1 17.4844 -3.9128 -3.60612 -3.54022 3.99772e-06
403 1 17.1281 -2.13704 -1.79862 -3.54021 4.35773e-06
404 1 16.771 -0.361287 0.00888427 -3.54025 1.16136e-05
405 1 16.4135 1.41404 1.81638 -3.54031 3.13815e-05
406 1 18.8973 -1.78282 -3.60612 -3.54025 8.05886e-06
407 1 18.5408 -0.00774389 -1.79862 -3.54028 1.56422e-05
408 1 18.1843 1.76679 0.00888448 -3.54029 2.23901e-05
409 1 17.8283 3.5404 1.81638 -3.54025 1.92283e-05
410 1 20.3116 0.345568 -3.60611 -3.54028 1.28274e-05
411 1 19.9561 2.11939 -1.79861 -3.54026 1.19045e-05
412 1 19.601 3.89256 0.00888508 -3.54022 7.63743e-06
413 1 19.2463 5.66502 1.81639 -3.5402 4.97111e-06
414 1 21.7285 2.4721 -3.60611 -3.54024 6.19912e-06
415 1 21.374 4.24492 -1.79861 -3.54022 4.00412e-06
416 1 21.0198 6.01726 0.0088853 -3.54022 3.40743e-06
417 1 20.6659 7.78905 1.81639 -3.54023 4.49641e-06
418 1 23.1471 4.59752 -3.60611 -3.54023 2.67651e-06
419 1 22.7934 6.36968 -1.79861 -3.54023 2.37879e-06
420 1 22.44 8.14139 0.00888548 -3.54023 2.41523e-06
421 1 22.087 9.91259 1.81639 -3.54022 2.53067e-06
422 1 24.5671 6.72233 -3.60611 -3.54023 1.28954e-06
423 1 24.214 8.49399 -1.79861 -3.54022 1.04731e-06
424 1 23.8612 10.2653 0.0088857 -3.5402 1.69089e-06
425 1 23.5086 12.0364 1.81639 -3.54018 4.04399e-06
426 1 25.9878 8.84695 -3.60611 -3.54021 7.94368e-07
427 1 25.635 10.6185 -1.79861 -3.5402 1.92916e-06
428 1 25.2822 12.3899 0.00888591 -3.54019 3.86587e-06
429 1 24.9293 14.1613 1.81639 -3.54018 5.52458e-06
430 1 27.4083 10.972 -3.60611 -3.5402 2.13454e-06
431 1 27.0553 12.7438 -1.79861 -3.5402 3.262e-06
432 1 26.702 14.5156 0.00888612 -3.54019 3.85002e-06
433 1 26.3485 16.2875 1.81639 -3.5402 3.7943e-06
434 1 28.8279 13.0979 -3.60611 -3.5402 2.49756e-06
435 1 28.4744 14.87 -1.79861 -3.5402 2.53108e-06
436 1 28.1205 16.6423 0.00888632 -3.5402 2.32163e-06
437 1 27.7662 18.4147 1.81639 -3.5402 1.99562e-06
438 1 30.2464 15.2246 -3.60611 -3.54021 1.56071e-06
439 1 29.8923 16.9971 -1.79861 -3.54021 1.39026e-06
440 1 31.664 17.352 -3.60611 -3.54021 8.77673e-07
441 1 7.19024 -17.04 1.81638 -3.53983 0.00165366
442 1 8.97614 -16.6943 0.00888306 -3.53918 0.00116528
443 1 8.63881 -14.9235 1.81638 -3.53957 0.00157349
444 1 11.097 -18.1095 -3.60612 -3.53957 0.000278952
445 1 10.7538 -16.3412 -1.79862 -3.53958 0.000558279
446 1 10.4079 -14.5683 0.00888314 -3.54018 0.000345828
447 1 10.0584 -12.7912 1.81638 -3.54074 9.10559e-05
448 1 12.5274 -15.9853 -3.60612 -3.54001 0.000167437
449 1 12.1774 -14.2121 -1.79862 -3.54036 6.87509e-05
450 1 11.8264 -12.437 0.00888366 -3.54054 4.2501e-05
451 1 11.4756 -10.661 1.81638 -3.54032 2.13429e-05
452 1 13.9481 -13.8558 -3.60612 -3.54032 2.33351e-05
453 1 13.5962 -12.0818 -1.79862 -3.5403 2.53261e-05
454 1 13.2444 -10.3068 0.00888382 -3.54019 3.51449e-05
455 1 12.8919 -8.53057 1.81638 -3.54011 3.65826e-05
456 1 15.3664 -11.7258 -3.60612 -3.54021 2.07365e-05
457 1 15.0132 -9.95113 -1.79862 -3.54019 2.53205e-05
458 1 14.6591 -8.17523 0.00888397 -3.54023 1.74569e-05
459 1 14.304 -6.39849 1.81638 -3.54029 8.98314e-06
460 1 16.7822 -9.59481 -3.60612 -3.54022 1.2607e-05
461 1 16.4272 -7.81949 -1.79862 -3.54027 9.71454e-06
462 1 16.0717 -6.04355 0.00888413 -3.54028 7.05415e-06
463 1 15.7159 -4.2674 1.81638 -3.54023 3.64775e-06
464 1 18.1961 -7.46362 -3.60612 -3.54026 5.93866e-06
465 1 17.8404 -5.68837 -1.79862 -3.54025 5.2792e-06
466 1 17.4844 -3.9128 0.00888435 -3.54022 3.99772e-06
467 1 17.1281 -2.13704 1.81638 -3.54021 4.35773e-06
468 1 19.6098 -5.33303 -3.60611 -3.54023 4.19152e-06
469 1 19.2537 -3.55801 -1.79861 -3.54023 4.91985e-06
470 1 18.8973 -1.78282 0.00888498 -3.54025 8.05886e-06
471 1 18.5408 -0.00774389 1.81638 -3.54028 1.56422e-05
472 1 21.0237 -3.20325 -3.60611 -3.54025 6.01751e-06
473 1 20.6676 -1.42874 -1.79861 -3.54027 9.66092e-06
474 1 20.3116 0.345568 0.00888521 -3.54028 1.28274e-05
475 1 19.9561 2.11939 1.81639 -3.54026 1.19045e-05
476 1 22.4388 -1.0748 -3.60611 -3.54026 8.20317e-06
477 1 22.0834 0.698831 -1.79861 -3.54026 8.27599e-06
478 1 21.7285 2.4721 0.00888542 -3.54024 6.19912e-06
479 1 21.374 4.24492 1.81639 -3.54022 4.00412e-06
480 1 23.8557 1.05216 -3.60611 -3.54024 5.01679e-06
481 1 23.5012 2.82499 -1.79861 -3.54023 3.66625e-06
482 1 23.1471 4.59752 0.0088856 -3.54023 2.67651e-06
483 1 22.7934 6.36968 1.81639 -3.54023 2.37879e-06
484 1 25.2743 3.17808 -3.60611 -3.54023 2.32249e-06
485 1 24.9205 4.95034 -1.79861 -3.54023 1.73794e-06
486 1 24.5671 6.72233 0.00888577 -3.54023 1.28954e-06
487 1 24.214 8.49399 1.81639 -3.54022 1.04731e-06
488 1 26.694 5.3034 -3.60611 -3.54023 9.55521e-07
489 1 26.3407 7.07527 -1.79861 -3.54022 6.36234e-07
490 1 25.9878 8.84695 0.008886 -3.54021 7.94368e-07
491 1 25.635 10.6185 1.81639 -3.5402 1.92916e-06
492 1 28.1142 7.42855 -3.60611 -3.54022 5.06837e-07
493 1 27.7612 9.20029 -1.79861 -3.54021 1.04415e-06
494 1 27.4083 10.972 0.00888621 -3.5402 2.13454e-06
495 1 27.0553 12.7438 1.81639 -3.5402 3.262e-06
496 1 29.5344 9.55399 -3.60611 -3.54021 1.30263e-06
497 1 29.1813 11.3259 -1.79861 -3.5402 2.05886e-06
498 1 28.8279 13.0979 0.00888641 -3.5402 2.49756e-06
499 1 28.4744 14.87 1.81639 -3.5402 2.53108e-06
500 1 30.9539 11.6801 -3.60611 -3.54021 1.73947e-06
501 1 30.6003 13.4523 -1.79861 -3.54021 1.7161e-06
502 1 30.2464 15.2246 0.00888661 -3.54021 1.56071e-06
503 1 29.8923 16.9971 1.81639 -3.54021 1.39026e-06
504 1 32.3724 13.8068 -3.60611 -3.54021 1.0181e-06
505 1 32.0183 15.5793 -1.79861 -3.54021 9.45653e-07
506 1 31.664 17.352 0.00888675 -3.54021 8.77673e-07
507 1 33.7901 15.9341 -3.60611 -3.54021 6.97595e-07
508 1 33.4356 17.7068 -1.79861 -3.54022 6.24754e-07
509 1 35.2072 18.0616 -3.60611 -3.54023 4.10257e-07
510 1 11.097 -18.1095 0.00888359 -3.53957 0.000278952
511 1 10.7538 -16.3412 1.81638 -3.53958 0.000558279
512 1 12.8753 -17.7555 -1.79862 -3.53982 0.000196971
513 1 12.5274 -15.9853 0.00888372 -3.54001 0.000167437
514 1 12.1774 -14.2121 1.81638 -3.54036 6.87509e-05
515 1 14.6506 -17.3996 -3.60612 -3.54004 8.39182e-05
516 1 14.2998 -15.6285 -1.79862 -3.5402 4.54638e-05
517 1 13.9481 -13.8558 0.00888386 -3.54032 2.33351e-05
518 1 13.5962 -12.0818 1.81638 -3.5403 2.53261e-05
519 1 16.072 -15.2717 -3.60612 -3.54023 1.70005e-05
520 1 15.7193 -13.4993 -1.79862 -3.54024 1.45853e-05
521 1 15.3664 -11.7258 0.00888406 -3.54021 2.07365e-05
522 1 15.0132 -9.95113 1.81638 -3.54019 2.53205e-05
523 1 17.4905 -13.1425 -3.60612 -3.5402 1.07964e-05
524 1 17.1366 -11.3692 -1.79862 -3.5402 1.31893e-05
525 1 16.7822 -9.59481 0.00888427 -3.54022 1.2607e-05
526 1 16.4272 -7.81949 1.81638 -3.54027 9.71454e-06
527 1 18.9067 -11.0124 -3.60612 -3.54021 6.42601e-06
528 1 18.5516 -9.23836 -1.79862 -3.54024 5.99127e-06
529 1 18.1961 -7.46362 0.00888448 -3.54026 5.93866e-06
530 1 17.8404 -5.68837 1.81638 -3.54025 5.2792e-06
531 1 20.3215 -8.88198 -3.60611 -3.54023 3.0121e-06
532 1 19.9657 -7.10772 -1.79861 -3.54024 3.69256e-06
533 1 19.6098 -5.33303 0.00888508 -3.54023 4.19152e-06
534 1 19.2537 -3.55801 1.81639 -3.54023 4.91985e-06
535 1 21.7359 -6.75191 -3.60611 -3.54023 2.52561e-06
536 1 21.3798 -4.9777 -1.79861 -3.54024 3.79728e-06
537 1 21.0237 -3.20325 0.0088853 -3.54025 6.01751e-06
538 1 20.6676 -1.42874 1.81639 -3.54027 9.66092e-06
539 1 23.1505 -4.62252 -3.60611 -3.54024 3.82549e-06
540 1 22.7945 -2.84864 -1.79861 -3.54026 6.15752e-06
541 1 22.4388 -1.0748 0.00888548 -3.54026 8.20317e-06
542 1 22.0834 0.698831 1.81639 -3.54026 8.27599e-06
543 1 24.5661 -2.4942 -3.60611 -3.54025 5.15967e-06
544 1 24.2107 -0.720924 -1.79861 -3.54025 5.74768e-06
545 1 23.8557 1.05216 0.0088857 -3.54024 5.01679e-06
546 1 23.5012 2.82499 1.81639 -3.54023 3.66625e-06
547 1 25.9831 -0.367073 -3.60611 -3.54024 3.70479e-06
548 1 25.6285 1.40559 -1.79861 -3.54024 3.06843e-06
549 1 25.2743 3.17808 0.00888591 -3.54023 2.32249e-06
550 1 24.9205 4.95034 1.81639 -3.54023 1.73794e-06
551 1 27.4015 1.75914 -3.60611 -3.54023 1.82671e-06
552 1 27.0476 3.53135 -1.79861 -3.54023 1.37355e-06
553 1 26.694 5.3034 0.00888612 -3.54023 9.55521e-07
554 1 26.3407 7.07527 1.81639 -3.54022 6.36234e-07
555 1 28.8209 3.88481 -3.60611 -3.54023 7.21414e-07
556 1 28.4674 5.65673 -1.79861 -3.54022 5.06216e-07
557 1 28.1142 7.42855 0.00888632 -3.54022 5.06837e-07
558 1 27.7612 9.20029 1.81639 -3.54021 1.04415e-06
559 1 30.2408 6.01032 -3.60611 -3.54022 3.5487e-07
560 1 29.8876 7.78215 -1.79861 -3.54021 6.31552e-07
561 1 29.5344 9.55399 0.00888652 -3.54021 1.30263e-06
562 1 29.1813 11.3259 1.81639 -3.5402 2.05886e-06
563 1 31.6607 8.13604 -3.60611 -3.54021 8.27648e-07
564 1 31.3073 9.90799 -1.79861 -3.54021 1.42565e-06
565 1 30.9539 11.6801 0.00888668 -3.54021 1.73947e-06
566 1 30.6003 13.4523 1.81639 -3.54021 1.7161e-06
567 1 33.08 10.2622 -3.60611 -3.54021 1.33934e-06
568 1 32.7263 12.0345 -1.79861 -3.54021 1.20438e-06
569 1 32.3724 13.8068 0.0088868 -3.54021 1.0181e-06
570 1 32.0183 15.5793 1.81639 -3.54021 9.45653e-07
571 1 34.4984 12.389 -3.60611 -3.54021 5.79562e-07
572 1 34.1444 14.1615 -1.79861 -3.54021 5.72599e-07
573 1 33.7901 15.9341 0.00888691 -3.54021 6.97595e-07
574 1 33.4356 17.7068 1.81639 -3.54022 6.24754e-07
575 1 35.9163 14.5162 -3.60611 -3.54021 5.45967e-07
576 1 35.5619 16.2888 -1.79861 -3.54023 7.44618e-07