ITEM: TIMESTEP
0
ITEM: NUMBER OF ATOMS
2504
ITEM: BOX BOUNDS xy xz yz mm pp pp
-5.5498871899999997e+01 5.5498871899999997e+01 0.0000000000000000e+00
-1.8432957300000002e+01 1.8432957300000002e+01 0.0000000000000000e+00
-3.6150000000000002e+00 3.6150000000000002e+00 0.0000000000000000e+00
ITEM: ATOMS id type x y z c_eng c_csym
1 1 0.639293 16.7057 3.615 -3.44615 3.74287
2 1 0.283767 -18.3529 -1.8075 -3.29039 9.2462
3 1 1.02813 13.0046 3.615 -3.47584 0.507503
4 1 0.898227 14.7499 -1.8075 -3.5036 0.599088
5 1 0.639293 16.7057 -3.1947e-06 -3.44615 3.74287
6 1 0.283767 -18.3529 1.8075 -3.29039 9.2462
7 1 2.61562 15.1571 3.615 -3.54271 0.124048
8 1 2.30022 16.9819 -1.8075 -3.52472 0.0718136
9 1 3.9965 17.3596 3.615 -3.54686 0.0276811
10 1 0.639293 7.48919 3.615 -3.44615 3.74287
11 1 0.283767 9.29656 -1.8075 -3.29039 9.2462
12 1 1.90047 9.6617 3.615 -3.45942 0.698686
13 1 1.3991 11.4103 -1.8075 -3.42916 0.758053
14 1 1.02813 13.0046 -2.8485e-06 -3.47584 0.507503
15 1 0.898227 14.7499 1.8075 -3.5036 0.599088
16 1 3.276 11.7198 3.615 -3.51748 0.0719498
17 1 2.9611 13.4133 -1.8075 -3.50791 0.0983118
18 1 2.61562 15.1571 -2.6956e-06 -3.54271 0.124048
19 1 2.30022 16.9819 1.8075 -3.52472 0.0718136
20 1 4.74693 13.7969 3.615 -3.53193 0.0187704
21 1 4.37943 15.5602 -1.8075 -3.53831 0.00868445
22 1 3.9965 17.3596 -2.5232e-06 -3.54686 0.0276811
23 1 6.134 15.9419 3.615 -3.54051 0.00243122
24 1 5.75777 17.718 -1.8075 -3.54444 0.00939033
25 1 7.54181 18.0679 3.615 -3.54069 0.00130295
26 1 1.02813 3.78815 3.615 -3.47584 0.507503
27 1 0.898227 5.53338 -1.8075 -3.5036 0.599088
28 1 0.639293 7.48919 -3.1946e-06 -3.44615 3.74287
29 1 0.283767 9.29656 1.8075 -3.29039 9.2462
30 1 2.61562 5.94059 3.615 -3.54271 0.124048
31 1 2.30022 7.7654 -1.8075 -3.52472 0.0718136
32 1 1.90047 9.6617 -2.6408e-06 -3.45942 0.698686
33 1 1.3991 11.4103 1.8075 -3.42916 0.758053
34 1 3.9965 8.14312 3.615 -3.54686 0.0276811
35 1 3.62298 9.95214 -1.8075 -3.54408 0.0524013
36 1 3.276 11.7198 -2.4635e-06 -3.51748 0.0719498
37 1 2.9611 13.4133 1.8075 -3.50791 0.0983118
38 1 5.40666 10.2724 3.615 -3.54342 0.00573102
39 1 5.08503 12.0344 -1.8075 -3.53455 0.0108428
40 1 4.74693 13.7969 -2.3371e-06 -3.53193 0.0187704
41 1 4.37943 15.5602 1.8075 -3.53831 0.00868445
42 1 6.85852 12.3832 3.615 -3.53864 0.00362211
43 1 6.50657 14.1609 -1.8075 -3.53824 0.00228366
44 1 6.134 15.9419 -2.2671e-06 -3.54051 0.00243122
45 1 5.75777 17.718 1.8075 -3.54444 0.00939033
46 1 8.2647 14.5209 3.615 -3.54084 0.0003887
47 1 7.90041 16.2988 -1.8075 -3.5412 0.00187871
48 1 7.54181 18.0679 -2.0914e-06 -3.54069 0.00130295
49 1 9.67533 16.649 3.615 -3.54065 0.000379223
50 1 9.32456 18.4175 -1.8075 -3.53946 0.000193224
51 1 0.639293 -1.72729 3.615 -3.44615 3.74287
52 1 0.283767 0.080085 -1.8075 -3.29039 9.2462
53 1 1.90047 0.445219 3.615 -3.45942 0.698686
54 1 1.3991 2.19378 -1.8075 -3.42916 0.758053
55 1 1.02813 3.78815 -2.8485e-06 -3.47584 0.507503
56 1 0.898227 5.53338 1.8075 -3.5036 0.599088
57 1 3.276 2.50332 3.615 -3.51748 0.0719498
58 1 2.9611 4.19687 -1.8075 -3.50791 0.0983118
59 1 2.61562 5.94059 -2.6956e-06 -3.54271 0.124048
60 1 2.30022 7.7654 1.8075 -3.52472 0.0718136
61 1 4.74693 4.58047 3.615 -3.53193 0.0187704
62 1 4.37943 6.34376 -1.8075 -3.53831 0.00868445
63 1 3.9965 8.14312 -2.5232e-06 -3.54686 0.0276811
64 1 3.62298 9.95214 1.8075 -3.54408 0.0524013
65 1 6.134 6.72543 3.615 -3.54051 0.00243122
66 1 5.75777 8.50156 -1.8075 -3.54444 0.00939033
67 1 5.40666 10.2724 -2.2785e-06 -3.54342 0.00573102
68 1 5.08503 12.0344 1.8075 -3.53455 0.0108428
69 1 7.54181 8.85145 3.615 -3.54069 0.00130295
70 1 7.19778 10.6142 -1.8075 -3.53931 0.00143232
71 1 6.85852 12.3832 -2.0927e-06 -3.53864 0.00362211
72 1 6.50657 14.1609 1.8075 -3.53824 0.00228366
73 1 8.97627 10.9688 3.615 -3.53911 0.000855077
74 1 8.62428 12.7418 -1.8075 -3.5399 0.000643979
75 1 8.2647 14.5209 -2.0217e-06 -3.54084 0.0003887
76 1 7.90041 16.2988 1.8075 -3.5412 0.00187871
77 1 10.3906 13.1005 3.615 -3.54051 6.9266e-05
78 1 10.0316 14.876 -1.8075 -3.54108 0.000380254
79 1 9.67533 16.649 -1.849e-06 -3.54065 0.000379223
80 1 9.32456 18.4175 1.8075 -3.53946 0.000193224
81 1 11.8045 15.2291 3.615 -3.54057 0.000100357
82 1 11.4516 17.0001 -1.8075 -3.54011 2.99157e-05
83 1 13.2258 17.3536 3.615 -3.54 3.26029e-05
84 1 1.02813 -5.42833 3.615 -3.47584 0.507503
85 1 0.898227 -3.6831 -1.8075 -3.5036 0.599088
86 1 0.639293 -1.72729 -3.1946e-06 -3.44615 3.74287
87 1 0.283767 0.080085 1.8075 -3.29039 9.2462
88 1 2.61562 -3.27589 3.615 -3.54271 0.124048
89 1 2.30022 -1.45108 -1.8075 -3.52472 0.0718136
90 1 1.90047 0.445219 -2.6408e-06 -3.45942 0.698686
91 1 1.3991 2.19378 1.8075 -3.42916 0.758053
92 1 3.9965 -1.07336 3.615 -3.54686 0.0276811
93 1 3.62298 0.735662 -1.8075 -3.54408 0.0524013
94 1 3.276 2.50332 -2.4635e-06 -3.51748 0.0719498
95 1 2.9611 4.19687 1.8075 -3.50791 0.0983118
96 1 5.40666 1.05589 3.615 -3.54342 0.00573102
97 1 5.08503 2.81792 -1.8075 -3.53455 0.0108428
98 1 4.74693 4.58047 -2.3371e-06 -3.53193 0.0187704
99 1 4.37943 6.34376 1.8075 -3.53831 0.00868445
100 1 6.85852 3.16675 3.615 -3.53864 0.00362211
101 1 6.50657 4.94442 -1.8075 -3.53824 0.00228366
102 1 6.134 6.72543 -2.2671e-06 -3.54051 0.00243122
103 1 5.75777 8.50156 1.8075 -3.54444 0.00939033
104 1 8.2647 5.30445 3.615 -3.54084 0.0003887
105 1 7.90041 7.0823 -1.8075 -3.5412 0.00187871
106 1 7.54181 8.85145 -2.0914e-06 -3.54069 0.00130295
107 1 7.19778 10.6142 1.8075 -3.53931 0.00143232
108 1 9.67533 7.43251 3.615 -3.54065 0.000379223
109 1 9.32456 9.20098 -1.8075 -3.53946 0.000193224
110 1 8.97627 10.9688 -1.904e-06 -3.53911 0.000855077
111 1 8.62428 12.7418 1.8075 -3.5399 0.000643979
112 1 11.1005 9.55414 3.615 -3.53962 0.000173332
113 1 10.7475 11.3261 -1.8075 -3.53975 0.000182812
114 1 10.3906 13.1005 -1.7675e-06 -3.54051 6.9266e-05
115 1 10.0316 14.876 1.8075 -3.54108 0.000380254
116 1 12.5172 11.6826 3.615 -3.54024 1.37152e-05
117 1 12.1604 13.4563 -1.8075 -3.54056 7.34732e-05
118 1 11.8045 15.2291 -1.5575e-06 -3.54057 0.000100357
119 1 11.4516 17.0001 1.8075 -3.54011 2.99157e-05
120 1 13.9327 13.8104 3.615 -3.54038 2.60445e-05
121 1 13.5786 15.5822 -1.8075 -3.54021 7.43674e-06
122 1 13.2258 17.3536 -1.2974e-06 -3.54 3.26029e-05
123 1 15.352 15.9362 3.615 -3.54011 5.83401e-06
124 1 14.9982 17.7083 -1.8075 -3.5401 1.29967e-05
125 1 16.77 18.0632 3.615 -3.5402 1.34239e-06
126 1 0.639293 -10.9438 3.615 -3.44615 3.74287
127 1 0.283767 -9.13639 -1.8075 -3.29039 9.2462
128 1 1.90047 -8.77126 3.615 -3.45942 0.698686
129 1 1.3991 -7.0227 -1.8075 -3.42916 0.758053
130 1 1.02813 -5.42833 -2.8485e-06 -3.47584 0.507503
131 1 0.898227 -3.6831 1.8075 -3.5036 0.599088
132 1 3.276 -6.71315 3.615 -3.51748 0.0719498
133 1 2.9611 -5.01961 -1.8075 -3.50791 0.0983118
134 1 2.61562 -3.27589 -2.6956e-06 -3.54271 0.124048
135 1 2.30022 -1.45108 1.8075 -3.52472 0.0718136
136 1 4.74693 -4.63601 3.615 -3.53193 0.0187704
137 1 4.37943 -2.87272 -1.8075 -3.53831 0.00868445
138 1 3.9965 -1.07336 -2.5232e-06 -3.54686 0.0276811
139 1 3.62298 0.735662 1.8075 -3.54408 0.0524013
140 1 6.134 -2.49105 3.615 -3.54051 0.00243122
141 1 5.75777 -0.714918 -1.8075 -3.54444 0.00939033
142 1 5.40666 1.05589 -2.2785e-06 -3.54342 0.00573102
143 1 5.08503 2.81792 1.8075 -3.53455 0.0108428
144 1 7.54181 -0.365033 3.615 -3.54069 0.00130295
145 1 7.19778 1.39767 -1.8075 -3.53931 0.00143232
146 1 6.85852 3.16675 -2.0927e-06 -3.53864 0.00362211
147 1 6.50657 4.94442 1.8075 -3.53824 0.00228366
148 1 8.97627 1.75232 3.615 -3.53911 0.000855077
149 1 8.62428 3.5253 -1.8075 -3.5399 0.000643979
150 1 8.2647 5.30445 -2.0217e-06 -3.54084 0.0003887
151 1 7.90041 7.0823 1.8075 -3.5412 0.00187871
152 1 10.3906 3.88405 3.615 -3.54051 6.9266e-05
153 1 10.0316 5.65954 -1.8075 -3.54108 0.000380254
154 1 9.67533 7.43251 -1.849e-06 -3.54065 0.000379223
155 1 9.32456 9.20098 1.8075 -3.53946 0.000193224
156 1 11.8045 6.01258 3.615 -3.54057 0.000100357
157 1 11.4516 7.78364 -1.8075 -3.54011 2.99157e-05
158 1 11.1005 9.55414 -1.6614e-06 -3.53962 0.000173332
159 1 10.7475 11.3261 1.8075 -3.53975 0.000182812
160 1 13.2258 8.13711 3.615 -3.54 3.26029e-05
161 1 12.8725 9.90925 -1.8075 -3.53998 5.01834e-05
162 1 12.5172 11.6826 -1.4545e-06 -3.54024 1.37152e-05
163 1 12.1604 13.4563 1.8075 -3.54056 7.34732e-05
164 1 14.6436 10.2646 3.615 -3.54022 4.06891e-06
165 1 14.2881 12.0377 -1.8075 -3.54037 1.37341e-05
166 1 13.9327 13.8104 -1.229e-06 -3.54038 2.60445e-05
167 1 13.5786 15.5822 1.8075 -3.54021 7.43674e-06
168 1 16.0602 12.3921 3.615 -3.54031 6.43699e-06
169 1 15.7058 14.1643 -1.8075 -3.54023 2.36695e-06
170 1 15.352 15.9362 -9.008e-07 -3.54011 5.83401e-06
171 1 14.9982 17.7083 1.8075 -3.5401 1.29967e-05
172 1 17.4786 14.5184 3.615 -3.54018 9.6087e-07
173 1 17.1245 16.2906 -1.8075 -3.54015 3.11902e-06
174 1 16.77 18.0632 -5.667e-07 -3.5402 1.34239e-06
175 1 18.8966 16.6453 3.615 -3.5402 4.36628e-07
176 1 18.542 18.4178 -1.8075 -3.54024 3.80116e-07
177 1 1.02813 -14.6448 3.615 -3.47584 0.507503
178 1 0.898227 -12.8996 -1.8075 -3.5036 0.599088
179 1 0.639293 -10.9438 -3.1946e-06 -3.44615 3.74287
180 1 0.283767 -9.13639 1.8075 -3.29039 9.2462
181 1 2.61562 -12.4924 3.615 -3.54271 0.124048
182 1 2.30022 -10.6676 -1.8075 -3.52472 0.0718136
183 1 1.90047 -8.77126 -2.6408e-06 -3.45942 0.698686
184 1 1.3991 -7.0227 1.8075 -3.42916 0.758053
185 1 3.9965 -10.2898 3.615 -3.54686 0.0276811
186 1 3.62298 -8.48082 -1.8075 -3.54408 0.0524013
187 1 3.276 -6.71315 -2.4635e-06 -3.51748 0.0719498
188 1 2.9611 -5.01961 1.8075 -3.50791 0.0983118
189 1 5.40666 -8.16059 3.615 -3.54342 0.00573102
190 1 5.08503 -6.39856 -1.8075 -3.53455 0.0108428
191 1 4.74693 -4.63601 -2.3371e-06 -3.53193 0.0187704
192 1 4.37943 -2.87272 1.8075 -3.53831 0.00868445
193 1 6.85852 -6.04973 3.615 -3.53864 0.00362211
194 1 6.50657 -4.27206 -1.8075 -3.53824 0.00228366
195 1 6.134 -2.49105 -2.2671e-06 -3.54051 0.00243122
196 1 5.75777 -0.714918 1.8075 -3.54444 0.00939033
197 1 8.2647 -3.91203 3.615 -3.54084 0.0003887
198 1 7.90041 -2.13418 -1.8075 -3.5412 0.00187871
199 1 7.54181 -0.365033 -2.0914e-06 -3.54069 0.00130295
200 1 7.19778 1.39767 1.8075 -3.53931 0.00143232
201 1 9.67533 -1.78397 3.615 -3.54065 0.000379223
202 1 9.32456 -0.0155036 -1.8075 -3.53946 0.000193224
203 1 8.97627 1.75232 -1.904e-06 -3.53911 0.000855077
204 1 8.62428 3.5253 1.8075 -3.5399 0.000643979
205 1 11.1005 0.337662 3.615 -3.53962 0.000173332
206 1 10.7475 2.10959 -1.8075 -3.53975 0.000182812
207 1 10.3906 3.88405 -1.7675e-06 -3.54051 6.9266e-05
208 1 10.0316 5.65954 1.8075 -3.54108 0.000380254
209 1 12.5172 2.46612 3.615 -3.54024 1.37152e-05
210 1 12.1604 4.23986 -1.8075 -3.54056 7.34732e-05
211 1 11.8045 6.01258 -1.5575e-06 -3.54057 0.000100357
212 1 11.4516 7.78364 1.8075 -3.54011 2.99157e-05
213 1 13.9327 4.59396 3.615 -3.54038 2.60445e-05
214 1 13.5786 6.36572 -1.8075 -3.54021 7.43674e-06
215 1 13.2258 8.13711 -1.2974e-06 -3.54 3.26029e-05
216 1 12.8725 9.90925 1.8075 -3.53998 5.01834e-05
217 1 15.352 6.71967 3.615 -3.54011 5.83401e-06
218 1 14.9982 8.4918 -1.8075 -3.5401 1.29967e-05
219 1 14.6436 10.2646 -1.0492e-06 -3.54022 4.06891e-06
220 1 14.2881 12.0377 1.8075 -3.54037 1.37341e-05
221 1 16.77 8.84668 3.615 -3.5402 1.34239e-06
222 1 16.4151 10.6194 -1.8075 -3.54029 2.37103e-06
223 1 16.0602 12.3921 -7.819e-07 -3.54031 6.43699e-06
224 1 15.7058 14.1643 1.8075 -3.54023 2.36695e-06
225 1 18.1873 10.9739 3.615 -3.54026 1.49141e-06
226 1 17.8328 12.7462 -1.8075 -3.54024 7.73034e-07
227 1 17.4786 14.5184 -4.259e-07 -3.54018 9.6087e-07
228 1 17.1245 16.2906 1.8075 -3.54015 3.11902e-06
229 1 19.6053 13.1005 -3.615 -3.5402 1.51791e-07
230 1 19.2511 14.8728 -1.8075 -3.54019 7.0322e-07
231 1 18.8966 16.6453 -3.54e-08 -3.5402 4.36628e-07
232 1 18.542 18.4178 1.8075 -3.54024 3.80116e-07
233 1 21.0233 15.2274 -3.615 -3.54021 1.34791e-07
234 1 20.6688 16.9998 -1.8075 -3.54023 6.08178e-08
235 1 22.441 17.3543 -3.615 -3.54023 6.70091e-08
236 1 1.90047 -17.9877 3.615 -3.45942 0.698686
237 1 1.3991 -16.2392 -1.8075 -3.42916 0.758053
238 1 1.02813 -14.6448 -2.8485e-06 -3.47584 0.507503
239 1 0.898227 -12.8996 1.8075 -3.5036 0.599088
240 1 3.276 -15.9296 3.615 -3.51748 0.0719498
241 1 2.9611 -14.2361 -1.8075 -3.50791 0.0983118
242 1 2.61562 -12.4924 -2.6956e-06 -3.54271 0.124048
243 1 2.30022 -10.6676 1.8075 -3.52472 0.0718136
244 1 4.74693 -13.8525 3.615 -3.53193 0.0187704
245 1 4.37943 -12.0892 -1.8075 -3.53831 0.00868445
246 1 3.9965 -10.2898 -2.5232e-06 -3.54686 0.0276811
247 1 3.62298 -8.48082 1.8075 -3.54408 0.0524013
248 1 6.134 -11.7075 3.615 -3.54051 0.00243122
249 1 5.75777 -9.9314 -1.8075 -3.54444 0.00939033
250 1 5.40666 -8.16059 -2.2785e-06 -3.54342 0.00573102
251 1 5.08503 -6.39856 1.8075 -3.53455 0.0108428
252 1 7.54181 -9.58151 3.615 -3.54069 0.00130295
253 1 7.19778 -7.81881 -1.8075 -3.53931 0.00143232
254 1 6.85852 -6.04973 -2.0927e-06 -3.53864 0.00362211
255 1 6.50657 -4.27206 1.8075 -3.53824 0.00228366
256 1 8.97627 -7.46416 3.615 -3.53911 0.000855077
257 1 8.62428 -5.69118 -1.8075 -3.5399 0.000643979
258 1 8.2647 -3.91203 -2.0217e-06 -3.54084 0.0003887
259 1 7.90041 -2.13418 1.8075 -3.5412 0.00187871
260 1 10.3906 -5.33243 3.615 -3.54051 6.9266e-05
261 1 10.0316 -3.55694 -1.8075 -3.54108 0.000380254
262 1 9.67533 -1.78397 -1.849e-06 -3.54065 0.000379223
263 1 9.32456 -0.0155036 1.8075 -3.53946 0.000193224
264 1 11.8045 -3.2039 3.615 -3.54057 0.000100357
265 1 11.4516 -1.43284 -1.8075 -3.54011 2.99157e-05
266 1 11.1005 0.337662 -1.6614e-06 -3.53962 0.000173332
267 1 10.7475 2.10959 1.8075 -3.53975 0.000182812
268 1 13.2258 -1.07937 3.615 -3.54 3.26029e-05
269 1 12.8725 0.692771 -1.8075 -3.53998 5.01834e-05
270 1 12.5172 2.46612 -1.4545e-06 -3.54024 1.37152e-05
271 1 12.1604 4.23986 1.8075 -3.54056 7.34732e-05
272 1 14.6436 1.0481 3.615 -3.54022 4.06891e-06
273 1 14.2881 2.82126 -1.8075 -3.54037 1.37341e-05
274 1 13.9327 4.59396 -1.229e-06 -3.54038 2.60445e-05
275 1 13.5786 6.36572 1.8075 -3.54021 7.43674e-06
276 1 16.0602 3.17559 3.615 -3.54031 6.43699e-06
277 1 15.7058 4.94779 -1.8075 -3.54023 2.36695e-06
278 1 15.352 6.71967 -9.008e-07 -3.54011 5.83401e-06
279 1 14.9982 8.4918 1.8075 -3.5401 1.29967e-05
280 1 17.4786 5.30194 3.615 -3.54018 9.6087e-07
281 1 17.1245 7.07417 -1.8075 -3.54015 3.11902e-06
282 1 16.77 8.84668 -5.667e-07 -3.5402 1.34239e-06
283 1 16.4151 10.6194 1.8075 -3.54029 2.37103e-06
284 1 18.8966 7.4288 3.615 -3.5402 4.36628e-07
285 1 18.542 9.20136 -1.8075 -3.54024 3.80116e-07
286 1 18.1873 10.9739 -2.191e-07 -3.54026 1.49141e-06
287 1 17.8328 12.7462 1.8075 -3.54024 7.73034e-07
288 1 20.3142 9.55585 -3.615 -3.54024 3.26432e-07
289 1 19.9597 11.3282 -1.8075 -3.54023 2.44944e-07
290 1 19.6053 13.1005 1.316e-07 -3.5402 1.51791e-07
291 1 19.2511 14.8728 1.8075 -3.54019 7.0322e-07
292 1 21.7321 11.6826 -3.615 -3.54021 2.52376e-08
293 1 21.3777 13.455 -1.8075 -3.5402 1.49306e-07
294 1 21.0233 15.2274 4.908e-07 -3.54021 1.34791e-07
295 1 20.6688 16.9998 1.8075 -3.54023 6.08178e-08
296 1 23.15 13.8094 -3.615 -3.54021 3.94403e-08
297 1 22.7956 15.5819 -1.8075 -3.54022 1.10898e-08
298 1 22.441 17.3543 7.829e-07 -3.54023 6.70091e-08
299 1 24.5678 15.9364 -3.615 -3.54022 1.25172e-08
300 1 24.2133 17.7088 -1.8075 -3.54022 2.12262e-08
301 1 25.9857 18.0632 -3.615 -3.54022 2.01385e-09
302 1 1.90047 -17.9877 -2.6408e-06 -3.45942 0.698686
303 1 1.3991 -16.2392 1.8075 -3.42916 0.758053
304 1 3.62298 -17.6973 -1.8075 -3.54408 0.0524013
305 1 3.276 -15.9296 -2.4635e-06 -3.51748 0.0719498
306 1 2.9611 -14.2361 1.8075 -3.50791 0.0983118
307 1 5.40666 -17.3771 3.615 -3.54342 0.00573102
308 1 5.08503 -15.615 -1.8075 -3.53455 0.0108428
309 1 4.74693 -13.8525 -2.3371e-06 -3.53193 0.0187704
310 1 4.37943 -12.0892 1.8075 -3.53831 0.00868445
311 1 6.85852 -15.2662 3.615 -3.53864 0.00362211
312 1 6.50657 -13.4885 -1.8075 -3.53824 0.00228366
313 1 6.134 -11.7075 -2.2671e-06 -3.54051 0.00243122
314 1 5.75777 -9.9314 1.8075 -3.54444 0.00939033
315 1 8.2647 -13.1285 3.615 -3.54084 0.0003887
316 1 7.90041 -11.3507 -1.8075 -3.5412 0.00187871
317 1 7.54181 -9.58151 -2.0914e-06 -3.54069 0.00130295
318 1 7.19778 -7.81881 1.8075 -3.53931 0.00143232
319 1 9.67533 -11.0004 3.615 -3.54065 0.000379223
320 1 9.32456 -9.23198 -1.8075 -3.53946 0.000193224
321 1 8.97627 -7.46416 -1.904e-06 -3.53911 0.000855077
322 1 8.62428 -5.69118 1.8075 -3.5399 0.000643979
323 1 11.1005 -8.87882 3.615 -3.53962 0.000173332
324 1 10.7475 -7.10689 -1.8075 -3.53975 0.000182812
325 1 10.3906 -5.33243 -1.7675e-06 -3.54051 6.9266e-05
326 1 10.0316 -3.55694 1.8075 -3.54108 0.000380254
327 1 12.5172 -6.75036 3.615 -3.54024 1.37152e-05
328 1 12.1604 -4.97662 -1.8075 -3.54056 7.34732e-05
329 1 11.8045 -3.2039 -1.5575e-06 -3.54057 0.000100357
330 1 11.4516 -1.43284 1.8075 -3.54011 2.99157e-05
331 1 13.9327 -4.62252 3.615 -3.54038 2.60445e-05
332 1 13.5786 -2.85076 -1.8075 -3.54021 7.43674e-06
333 1 13.2258 -1.07937 -1.2974e-06 -3.54 3.26029e-05
334 1 12.8725 0.692771 1.8075 -3.53998 5.01834e-05
335 1 15.352 -2.49681 3.615 -3.54011 5.83401e-06
336 1 14.9982 -0.724681 -1.8075 -3.5401 1.29967e-05
337 1 14.6436 1.0481 -1.0492e-06 -3.54022 4.06891e-06
338 1 14.2881 2.82126 1.8075 -3.54037 1.37341e-05
339 1 16.77 -0.369795 3.615 -3.5402 1.34239e-06
340 1 16.4151 1.40296 -1.8075 -3.54029 2.37103e-06
341 1 16.0602 3.17559 -7.819e-07 -3.54031 6.43699e-06
342 1 15.7058 4.94779 1.8075 -3.54023 2.36695e-06
343 1 18.1873 1.75742 3.615 -3.54026 1.49141e-06
344 1 17.8328 3.52976 -1.8075 -3.54024 7.73034e-07
345 1 17.4786 5.30194 -4.259e-07 -3.54018 9.6087e-07
346 1 17.1245 7.07417 1.8075 -3.54015 3.11902e-06
347 1 19.6053 3.88406 -3.615 -3.5402 1.51791e-07
348 1 19.2511 5.65637 -1.8075 -3.54019 7.0322e-07
349 1 18.8966 7.4288 -3.54e-08 -3.5402 4.36628e-07
350 1 18.542 9.20136 1.8075 -3.54024 3.80116e-07
351 1 21.0233 6.01089 -3.615 -3.54021 1.34791e-07
352 1 20.6688 7.78337 -1.8075 -3.54023 6.08178e-08
353 1 20.3142 9.55585 3.364e-07 -3.54024 3.26432e-07
354 1 19.9597 11.3282 1.8075 -3.54023 2.44944e-07
355 1 22.441 8.13785 -3.615 -3.54023 6.7009e-08
356 1 22.0865 9.91026 -1.8075 -3.54023 7.32572e-08
357 1 21.7321 11.6826 6.771e-07 -3.54021 2.52376e-08
358 1 21.3777 13.455 1.8075 -3.5402 1.49306e-07
359 1 23.8589 10.2647 -3.615 -3.54022 5.3726e-09
360 1 23.5045 12.0371 -1.8075 -3.54021 2.94018e-08
361 1 23.15 13.8094 9.73e-07 -3.54021 3.94403e-08
362 1 22.7956 15.5819 1.8075 -3.54022 1.10898e-08
363 1 25.2768 12.3915 -3.615 -3.54022 1.15609e-08
364 1 24.9223 14.1639 -1.8075 -3.54022 3.01021e-09
365 1 24.5678 15.9364 1.2578e-06 -3.54022 1.25172e-08
366 1 24.2133 17.7088 1.8075 -3.54022 2.12262e-08
367 1 26.6946 14.5184 -3.615 -3.54022 1.74521e-09
368 1 26.3401 16.2908 -1.8075 -3.54022 6.54853e-09
369 1 25.9857 18.0632 1.6239e-06 -3.54022 2.01385e-09
370 1 28.1124 16.6453 -3.615 -3.54022 1.8527e-09
371 1 27.758 18.4177 -1.8075 -3.54022 4.04717e-10
372 1 3.62298 -17.6973 1.8075 -3.54408 0.0524013
373 1 5.40666 -17.3771 -2.2785e-06 -3.54342 0.00573102
374 1 5.08503 -15.615 1.8075 -3.53455 0.0108428
375 1 7.19778 -17.0353 -1.8075 -3.53931 0.00143232
376 1 6.85852 -15.2662 -2.0927e-06 -3.53864 0.00362211
377 1 6.50657 -13.4885 1.8075 -3.53824 0.00228366
378 1 8.97627 -16.6806 3.615 -3.53911 0.000855077
379 1 8.62428 -14.9077 -1.8075 -3.5399 0.000643979
380 1 8.2647 -13.1285 -2.0217e-06 -3.54084 0.0003887
381 1 7.90041 -11.3507 1.8075 -3.5412 0.00187871
382 1 10.3906 -14.5489 3.615 -3.54051 6.9266e-05
383 1 10.0316 -12.7734 -1.8075 -3.54108 0.000380254
384 1 9.67533 -11.0004 -1.849e-06 -3.54065 0.000379223
385 1 9.32456 -9.23198 1.8075 -3.53946 0.000193224
386 1 11.8045 -12.4204 3.615 -3.54057 0.000100357
387 1 11.4516 -10.6493 -1.8075 -3.54011 2.99157e-05
388 1 11.1005 -8.87882 -1.6614e-06 -3.53962 0.000173332
389 1 10.7475 -7.10689 1.8075 -3.53975 0.000182812
390 1 13.2258 -10.2958 3.615 -3.54 3.26029e-05
391 1 12.8725 -8.52371 -1.8075 -3.53998 5.01834e-05
392 1 12.5172 -6.75036 -1.4545e-06 -3.54024 1.37152e-05
393 1 12.1604 -4.97662 1.8075 -3.54056 7.34732e-05
394 1 14.6436 -8.16838 3.615 -3.54022 4.06891e-06
395 1 14.2881 -6.39522 -1.8075 -3.54037 1.37341e-05
396 1 13.9327 -4.62252 -1.229e-06 -3.54038 2.60445e-05
397 1 13.5786 -2.85076 1.8075 -3.54021 7.43674e-06
398 1 16.0602 -6.04089 3.615 -3.54031 6.43699e-06
399 1 15.7058 -4.26869 -1.8075 -3.54023 2.36695e-06
400 1 15.352 -2.49681 -9.008e-07 -3.54011 5.83401e-06
401 1 14.9982 -0.724681 1.8075 -3.5401 1.29967e-05
402 1 17.4786 -3.91454 3.615 -3.54018 9.60869e-07
403 1 17.1245 -2.14231 -1.8075 -3.54015 3.11902e-06
404 1 16.77 -0.369795 -5.667e-07 -3.5402 1.34239e-06
405 1 16.4151 1.40296 1.8075 -3.54029 2.37103e-06
406 1 18.8966 -1.78768 3.615 -3.5402 4.36628e-07
407 1 18.542 -0.0151145 -1.8075 -3.54024 3.80116e-07
408 1 18.1873 1.75742 -2.191e-07 -3.54026 1.49141e-06
409 1 17.8328 3.52976 1.8075 -3.54024 7.73034e-07
410 1 20.3142 0.339371 -3.615 -3.54024 3.26432e-07
411 1 19.9597 2.11176 -1.8075 -3.54023 2.44944e-07
412 1 19.6053 3.88406 1.316e-07 -3.5402 1.51791e-07
413 1 19.2511 5.65637 1.8075 -3.54019 7.0322e-07
414 1 21.7321 2.46614 -3.615 -3.54021 2.52376e-08
415 1 21.3777 4.23849 -1.8075 -3.5402 1.49306e-07
416 1 21.0233 6.01089 4.908e-07 -3.54021 1.34791e-07
417 1 20.6688 7.78337 1.8075 -3.54023 6.08178e-08
418 1 23.15 4.59297 -3.615 -3.54021 3.94402e-08
419 1 22.7956 6.36541 -1.8075 -3.54022 1.10897e-08
420 1 22.441 8.13785 7.829e-07 -3.54023 6.7009e-08
421 1 22.0865 9.91026 1.8075 -3.54023 7.32572e-08
422 1 24.5678 6.71988 -3.615 -3.54022 1.25172e-08
423 1 24.2133 8.49229 -1.8075 -3.54022 2.12262e-08
424 1 23.8589 10.2647 1.1316e-06 -3.54022 5.3726e-09
425 1 23.5045 12.0371 1.8075 -3.54021 2.94018e-08
426 1 25.9857 8.84673 -3.615 -3.54022 2.01387e-09
427 1 25.6312 10.6191 -1.8075 -3.54022 5.00915e-09
428 1 25.2768 12.3915 1.4862e-06 -3.54022 1.15609e-08
429 1 24.9223 14.1639 1.8075 -3.54022 3.01021e-09
430 1 27.4036 10.9736 -3.615 -3.54022 3.95617e-09
431 1 27.0491 12.746 -1.8075 -3.54022 1.70967e-09
432 1 26.6946 14.5184 1.8151e-06 -3.54022 1.74521e-09
433 1 26.3401 16.2908 1.8075 -3.54022 6.54853e-09
434 1 28.8214 13.1004 -3.615 -3.54022 4.76458e-12
435 1 28.4669 14.8729 -1.8075 -3.54022 2.66367e-09
436 1 28.1124 16.6453 2.1514e-06 -3.54022 1.8527e-09
437 1 27.758 18.4177 1.8075 -3.54022 4.04717e-10
438 1 30.2392 15.2273 -3.615 -3.54022 3.8063e-09
439 1 29.8848 16.9997 -1.8075 -3.54022 2.69623e-10
440 1 31.6571 17.3542 -3.615 -3.54022 2.3864e-09
441 1 7.19778 -17.0353 1.8075 -3.53931 0.00143232
442 1 8.97627 -16.6806 -1.904e-06 -3.53911 0.000855077
443 1 8.62428 -14.9077 1.8075 -3.5399 0.000643979
444 1 11.1005 -18.0953 3.615 -3.53962 0.000173332
445 1 10.7475 -16.3234 -1.8075 -3.53975 0.000182812
446 1 10.3906 -14.5489 -1.7675e-06 -3.54051 6.9266e-05
447 1 10.0316 -12.7734 1.8075 -3.54108 0.000380254
448 1 12.5172 -15.9668 3.615 -3.54024 1.37152e-05
449 1 12.1604 -14.1931 -1.8075 -3.54056 7.34732e-05
450 1 11.8045 -12.4204 -1.5575e-06 -3.54057 0.000100357
451 1 11.4516 -10.6493 1.8075 -3.54011 2.99157e-05
452 1 13.9327 -13.839 3.615 -3.54038 2.60445e-05
453 1 13.5786 -12.0672 -1.8075 -3.54021 7.43674e-06
454 1 13.2258 -10.2958 -1.2974e-06 -3.54 3.26029e-05
455 1 12.8725 -8.52371 1.8075 -3.53998 5.01834e-05
456 1 15.352 -11.7133 3.615 -3.54011 5.83401e-06
457 1 14.9982 -9.94116 -1.8075 -3.5401 1.29967e-05
458 1 14.6436 -8.16838 -1.0492e-06 -3.54022 4.06891e-06
459 1 14.2881 -6.39522 1.8075 -3.54037 1.37341e-05
460 1 16.77 -9.58627 3.615 -3.5402 1.34239e-06
461 1 16.4151 -7.81352 -1.8075 -3.54029 2.37103e-06
462 1 16.0602 -6.04089 -7.819e-07 -3.54031 6.43699e-06
463 1 15.7058 -4.26869 1.8075 -3.54023 2.36695e-06
464 1 18.1873 -7.45906 3.615 -3.54026 1.49141e-06
465 1 17.8328 -5.68671 -1.8075 -3.54024 7.73034e-07
466 1 17.4786 -3.91454 -4.259e-07 -3.54018 9.60869e-07
467 1 17.1245 -2.14231 1.8075 -3.54015 3.11902e-06
468 1 19.6053 -5.33242 -3.615 -3.5402 1.51791e-07
469 1 19.2511 -3.56011 -1.8075 -3.54019 7.0322e-07
470 1 18.8966 -1.78768 -3.54e-08 -3.5402 4.36628e-07
471 1 18.542 -0.0151145 1.8075 -3.54024 3.80116e-07
472 1 21.0233 -3.20559 -3.615 -3.54021 1.34791e-07
473 1 20.6688 -1.43311 -1.8075 -3.54023 6.08178e-08
474 1 20.3142 0.339371 3.364e-07 -3.54024 3.26432e-07
475 1 19.9597 2.11176 1.8075 -3.54023 2.44944e-07
476 1 22.441 -1.07863 -3.615 -3.54023 6.70089e-08
477 1 22.0865 0.693782 -1.8075 -3.54023 7.32572e-08
478 1 21.7321 2.46614 6.771e-07 -3.54021 2.52376e-08
479 1 21.3777 4.23849 1.8075 -3.5402 1.49306e-07
480 1 23.8589 1.0482 -3.615 -3.54022 5.37262e-09
481 1 23.5045 2.82057 -1.8075 -3.54021 2.94018e-08
482 1 23.15 4.59297 9.73e-07 -3.54021 3.94402e-08
483 1 22.7956 6.36541 1.8075 -3.54022 1.10897e-08
484 1 25.2768 3.17504 -3.615 -3.54022 1.15609e-08
485 1 24.9223 4.94745 -1.8075 -3.54022 3.01022e-09
486 1 24.5678 6.71988 1.2578e-06 -3.54022 1.25172e-08
487 1 24.2133 8.49229 1.8075 -3.54022 2.12262e-08
488 1 26.6946 5.30192 -3.615 -3.54022 1.74522e-09
489 1 26.3401 7.07433 -1.8075 -3.54022 6.54849e-09
490 1 25.9857 8.84673 1.6239e-06 -3.54022 2.01387e-09
491 1 25.6312 10.6191 1.8075 -3.54022 5.00915e-09
492 1 28.1124 7.42878 -3.615 -3.54022 1.85269e-09
493 1 27.758 9.20118 -1.8075 -3.54022 4.04702e-10
494 1 27.4036 10.9736 1.9742e-06 -3.54022 3.95617e-09
495 1 27.0491 12.746 1.8075 -3.54022 1.70967e-09
496 1 29.5303 9.55563 -3.615 -3.54022 2.09677e-09
497 1 29.1759 11.328 -1.8075 -3.54022 2.4578e-09
498 1 28.8214 13.1004 2.2945e-06 -3.54022 4.76458e-12
499 1 28.4669 14.8729 1.8075 -3.54022 2.66367e-09
500 1 30.9482 11.6825 -3.615 -3.54022 1.40512e-09
501 1 30.5937 13.4549 -1.8075 -3.54022 2.01056e-09
502 1 30.2392 15.2273 2.6083e-06 -3.54022 3.8063e-09
503 1 29.8848 16.9997 1.8075 -3.54022 2.69623e-10
504 1 32.366 13.8094 -3.615 -3.54022 1.17123e-08
505 1 32.0115 15.5818 -1.8075 -3.54022 4.28939e-09
506 1 31.6571 17.3542 2.8508e-06 -3.54022 2.3864e-09
507 1 33.7839 15.9362 -3.615 -3.54022 5.73774e-09
508 1 33.4294 17.7086 -1.8075 -3.54022 2.18451e-08
509 1 35.2017 18.063 -3.615 -3.54023 6.15177e-08
510 1 11.1005 -18.0953 -1.6614e-06 -3.53962 0.000173332
511 1 10.7475 -16.3234 1.8075 -3.53975 0.000182812
512 1 12.8725 -17.7402 -1.8075 -3.53998 5.01834e-05
513 1 12.5172 -15.9668 -1.4545e-06 -3.54024 1.37152e-05
514 1 12.1604 -14.1931 1.8075 -3.54056 7.34732e-05
515 1 14.6436 -17.3849 3.615 -3.54022 4.06891e-06
516 1 14.2881 -15.6117 -1.8075 -3.54037 1.37341e-05
517 1 13.9327 -13.839 -1.229e-06 -3.54038 2.60445e-05
518 1 13.5786 -12.0672 1.8075 -3.54021 7.43674e-06
519 1 16.0602 -15.2574 3.615 -3.54031 6.43699e-06
520 1 15.7058 -13.4852 -1.8075 -3.54023 2.36695e-06
521 1 15.352 -11.7133 -9.008e-07 -3.54011 5.83401e-06
522 1 14.9982 -9.94116 1.8075 -3.5401 1.29967e-05
523 1 17.4786 -13.131 3.615 -3.54018 9.60869e-07
524 1 17.1245 -11.3588 -1.8075 -3.54015 3.11902e-06
525 1 16.77 -9.58627 -5.667e-07 -3.5402 1.34239e-06
526 1 16.4151 -7.81352 1.8075 -3.54029 2.37103e-06
527 1 18.8966 -11.0042 3.615 -3.5402 4.36628e-07
528 1 18.542 -9.23159 -1.8075 -3.54024 3.80116e-07
529 1 18.1873 -7.45906 -2.191e-07 -3.54026 1.49141e-06
530 1 17.8328 -5.68671 1.8075 -3.54024 7.73034e-07
531 1 20.3142 -8.87711 -3.615 -3.54024 3.26432e-07
532 1 19.9597 -7.10471 -1.8075 -3.54023 2.44944e-07
533 1 19.6053 -5.33242 1.316e-07 -3.5402 1.51791e-07
534 1 19.2511 -3.56011 1.8075 -3.54019 7.0322e-07
535 1 21.7321 -6.75034 -3.615 -3.54021 2.52376e-08
536 1 21.3777 -4.97799 -1.8075 -3.5402 1.49306e-07
537 1 21.0233 -3.20559 4.908e-07 -3.54021 1.34791e-07
538 1 20.6688 -1.43311 1.8075 -3.54023 6.08178e-08
539 1 23.15 -4.62351 -3.615 -3.54021 3.94402e-08
540 1 22.7956 -2.85107 -1.8075 -3.54022 1.10897e-08
541 1 22.441 -1.07863 7.829e-07 -3.54023 6.70089e-08
542 1 22.0865 0.693782 1.8075 -3.54023 7.32572e-08
543 1 24.5678 -2.4966 -3.615 -3.54022 1.25172e-08
544 1 24.2133 -0.724187 -1.8075 -3.54022 2.12262e-08
545 1 23.8589 1.0482 1.1316e-06 -3.54022 5.37262e-09
546 1 23.5045 2.82057 1.8075 -3.54021 2.94018e-08
547 1 25.9857 -0.369749 -3.615 -3.54022 2.01385e-09
548 1 25.6312 1.40264 -1.8075 -3.54022 5.00912e-09
549 1 25.2768 3.17504 1.4862e-06 -3.54022 1.15609e-08
550 1 24.9223 4.94745 1.8075 -3.54022 3.01022e-09
551 1 27.4036 1.75709 -3.615 -3.54022 3.95616e-09
552 1 27.0491 3.5295 -1.8075 -3.54022 1.70966e-09
553 1 26.6946 5.30192 1.8151e-06 -3.54022 1.74522e-09
554 1 26.3401 7.07433 1.8075 -3.54022 6.54849e-09
555 1 28.8214 3.88397 -3.615 -3.54022 4.76461e-12
556 1 28.4669 5.65638 -1.8075 -3.54022 2.66367e-09
557 1 28.1124 7.42878 2.1514e-06 -3.54022 1.85269e-09
558 1 27.758 9.20118 1.8075 -3.54022 4.04702e-10
559 1 30.2392 6.01084 -3.615 -3.54022 3.80629e-09
560 1 29.8848 7.78323 -1.8075 -3.54022 2.69627e-10
561 1 29.5303 9.55563 2.4657e-06 -3.54022 2.09677e-09
562 1 29.1759 11.328 1.8075 -3.54022 2.4578e-09
563 1 31.6571 8.13768 -3.615 -3.54022 2.38639e-09
564 1 31.3026 9.91008 -1.8075 -3.54022 6.48926e-09
565 1 30.9482 11.6825 2.7233e-06 -3.54022 1.40512e-09
566 1 30.5937 13.4549 1.8075 -3.54022 2.01056e-09
567 1 33.0749 10.2645 -3.615 -3.54022 1.10763e-08
568 1 32.7205 12.037 -1.8075 -3.54022 3.4397e-09
569 1 32.366 13.8094 2.9279e-06 -3.54022 1.17123e-08
570 1 32.0115 15.5818 1.8075 -3.54022 4.28939e-09
571 1 34.4927 12.3914 -3.615 -3.54021 4.11914e-08
572 1 34.1383 14.1638 -1.8075 -3.54021 2.65256e-08
573 1 33.7839 15.9362 3.1027e-06 -3.54022 5.73774e-09
574 1 33.4294 17.7086 1.8075 -3.54022 2.18451e-08
575 1 35.9107 14.5183 -3.615 -3.54021 2.309e-08
576 1 35.5562 16.2906 -1.8075 -3.54023 7.75757e-08
577 1 35.2017 18.063 3.2314e-06 -3.54023 6.15177e-08
578 1 37.3286 16.645 -3.615 -3.54024 3.09074e-07
579 1 36.974 18.4175 -1.8075 -3.54023 5.34219e-08
580 1 12.8725 -17.7402 1.8075 -3.53998 5.01834e-05
581 1 14.6436 -17.3849 -1.0492e-06 -3.54022 4.06891e-06
582 1 14.2881 -15.6117 1.8075 -3.54037 1.37341e-05
583 1 16.4151 -17.03 -1.8075 -3.54029 2.37103e-06
584 1 16.0602 -15.2574 -7.819e-07 -3.54031 6.43699e-06
585 1 15.7058 -13.4852 1.8075 -3.54023 2.36695e-06
586 1 18.1873 -16.6755 3.615 -3.54026 1.49141e-06
587 1 17.8328 -14.9032 -1.8075 -3.54024 7.73034e-07
588 1 17.4786 -13.131 -4.259e-07 -3.54018 9.60869e-07
589 1 17.1245 -11.3588 1.8075 -3.54015 3.11902e-06
590 1 19.6053 -14.5489 -3.615 -3.5402 1.51791e-07