ITEM: TIMESTEP
0
ITEM: NUMBER OF ATOMS
2504
ITEM: BOX BOUNDS xy xz yz mm pp pp
-5.5498871899999997e+01 5.5498871899999997e+01 0.0000000000000000e+00
-1.8432957300000002e+01 1.8432957300000002e+01 0.0000000000000000e+00
-3.6150000000000002e+00 3.6150000000000002e+00 0.0000000000000000e+00
ITEM: ATOMS id type x y z c_eng c_csym
1 1 0.63481 16.742 -3.60671 -3.44227 3.62183
2 1 0.288278 -18.3105 -1.79921 -3.28495 9.11682
3 1 1.00272 13.0311 -3.60671 -3.49191 0.363078
4 1 0.870386 14.7833 -1.79921 -3.50381 0.588495
5 1 0.63481 16.742 0.00828954 -3.44227 3.62183
6 1 0.288278 -18.3105 1.81579 -3.28495 9.11682
7 1 2.59252 15.1704 -3.60671 -3.54151 0.120601
8 1 2.29066 17.0037 -1.79921 -3.52179 0.0784529
9 1 3.98164 17.3706 -3.60671 -3.54548 0.0290584
10 1 0.562937 7.44293 -3.60671 -3.50338 1.80757
11 1 0.214596 9.21786 -1.79921 -3.32217 5.01212
12 1 1.84589 9.62791 -3.60671 -3.48507 0.368472
13 1 1.35655 11.3867 -1.79921 -3.47948 0.431733
14 1 1.00272 13.0311 0.00828976 -3.49191 0.363078
15 1 0.870386 14.7833 1.81579 -3.50381 0.588495
16 1 3.22652 11.7059 -3.60671 -3.52197 0.0454568
17 1 2.9182 13.411 -1.79921 -3.51249 0.0751447
18 1 2.59252 15.1704 0.00828986 -3.54151 0.120601
19 1 2.29066 17.0037 1.81579 -3.52179 0.0784529
20 1 4.70881 13.7896 -3.60671 -3.53292 0.0142522
21 1 4.35355 15.5594 -1.79921 -3.53813 0.0119977
22 1 3.98164 17.3706 0.00828997 -3.54548 0.0290584
23 1 6.1082 15.937 -3.60671 -3.54088 0.00242481
24 1 5.73919 17.7193 -1.79921 -3.5448 0.0122467
25 1 7.52527 18.0624 -3.60671 -3.54124 0.0023395
26 1 1.07229 3.78599 -3.60671 -3.51423 0.234032
27 1 0.856026 5.55244 -1.79921 -3.531 0.21826
28 1 0.562937 7.44293 0.00828954 -3.50338 1.80754
29 1 0.214596 9.21786 1.81579 -3.32254 5.01212
30 1 2.59033 5.94321 -3.60671 -3.54203 0.0589693
31 1 2.26097 7.75423 -1.79921 -3.52394 0.045712
32 1 1.84589 9.62791 0.0082899 -3.48507 0.368472
33 1 1.35655 11.3867 1.81579 -3.47948 0.431733
34 1 3.96546 8.13957 -3.60671 -3.54486 0.0188011
35 1 3.58018 9.94239 -1.79921 -3.54306 0.0486062
36 1 3.22652 11.7059 0.00829001 -3.52197 0.0454568
37 1 2.9182 13.411 1.81579 -3.51249 0.0751447
38 1 5.37021 10.2706 -3.60671 -3.54249 0.00598864
39 1 5.04342 12.0289 -1.79921 -3.5346 0.00779464
40 1 4.70881 13.7896 0.00829045 -3.53292 0.0142522
41 1 4.35355 15.5594 1.81579 -3.53813 0.0119977
42 1 6.8252 12.3805 -3.60671 -3.5383 0.00303376
43 1 6.47532 14.1549 -1.79921 -3.53819 0.0018457
44 1 6.1082 15.937 0.0082905 -3.54088 0.00242481
45 1 5.73919 17.7193 1.81579 -3.5448 0.0122467
46 1 8.23933 14.5162 -3.60671 -3.54074 0.000396628
47 1 7.87813 16.2926 -1.79921 -3.54144 0.00224701
48 1 7.52527 18.0624 0.00829061 -3.54124 0.0023395
49 1 9.65885 16.6414 -3.60671 -3.54077 0.000649803
50 1 9.31421 18.4071 -1.79921 -3.53969 0.000270299
51 1 0.572733 -1.78422 -3.60671 -3.5093 1.63545
52 1 0.229688 -0.0194884 -1.79921 -3.33681 4.44966
53 1 1.90638 0.367911 -3.60671 -3.50082 0.281593
54 1 1.44907 2.11934 -1.79921 -3.49179 0.299484
55 1 1.07229 3.78599 0.00828976 -3.51423 0.234006
56 1 0.856026 5.55244 1.81579 -3.53064 0.21826
57 1 3.28323 2.46673 -3.60671 -3.52657 0.0273464
58 1 2.94294 4.1876 -1.79921 -3.52349 0.0359297
59 1 2.59033 5.94321 0.00828986 -3.54203 0.0589693
60 1 2.26097 7.75423 1.81579 -3.52399 0.045712
61 1 4.72386 4.5732 -3.60671 -3.5346 0.00784885
62 1 4.35313 6.34043 -1.79921 -3.53804 0.00649198
63 1 3.96546 8.13957 0.00828997 -3.54486 0.0188011
64 1 3.58018 9.94239 1.81579 -3.54306 0.0486062
65 1 6.10806 6.72443 -3.60671 -3.54076 0.00229342
66 1 5.72742 8.50112 -1.79921 -3.54394 0.00954832
67 1 5.37021 10.2706 0.00829049 -3.54249 0.00598864
68 1 5.04342 12.0289 1.81579 -3.5346 0.00779464
69 1 7.51332 8.85379 -3.60671 -3.5408 0.0017318
70 1 7.16585 10.6148 -1.79921 -3.53915 0.00102762
71 1 6.8252 12.3805 0.00829061 -3.5383 0.00303376
72 1 6.47532 14.1549 1.81579 -3.53819 0.0018457
73 1 8.94957 10.9705 -3.60671 -3.53911 0.000628958
74 1 8.59752 12.7401 -1.79921 -3.53971 0.000546921
75 1 8.23933 14.5162 0.00829065 -3.54074 0.000396628
76 1 7.87813 16.2926 1.81579 -3.54144 0.00224701
77 1 10.3695 13.0994 -3.60671 -3.54047 8.40714e-05
78 1 10.012 14.8715 -1.79921 -3.54106 0.000543921
79 1 9.65885 16.6414 0.00829076 -3.54077 0.000649803
80 1 9.31421 18.4071 1.81579 -3.53969 0.000270299
81 1 11.791 15.224 -3.60671 -3.54059 0.00019715
82 1 11.4419 16.9909 -1.79921 -3.54012 8.48531e-05
83 1 13.2226 17.3434 -3.60671 -3.53993 7.6606e-05
84 1 1.09836 -5.40945 -3.60671 -3.50814 0.263754
85 1 0.868244 -3.66345 -1.79921 -3.53532 0.2202
86 1 0.572733 -1.78422 0.00828954 -3.5093 1.63543
87 1 0.229688 -0.0194884 1.81579 -3.33704 4.44966
88 1 2.61986 -3.26118 -3.60671 -3.54398 0.0528336
89 1 2.29161 -1.47376 -1.79921 -3.53095 0.0357566
90 1 1.90638 0.367911 0.0082899 -3.50082 0.28158
91 1 1.44907 2.11934 1.81579 -3.49219 0.299484
92 1 4.02079 -1.08762 -3.60671 -3.54545 0.00923935
93 1 3.64531 0.700183 -1.79921 -3.54224 0.0180103
94 1 3.28323 2.46673 0.00829001 -3.52657 0.0273464
95 1 2.94294 4.1876 1.81579 -3.52355 0.0359297
96 1 5.42287 1.04841 -3.60671 -3.54231 0.00188256
97 1 5.07758 2.80997 -1.79921 -3.5367 0.00378547
98 1 4.72386 4.5732 0.00829045 -3.5346 0.00784885
99 1 4.35313 6.34043 1.81579 -3.53804 0.00649198
100 1 6.85008 3.17193 -3.60671 -3.53909 0.00147283
101 1 6.48655 4.9455 -1.79921 -3.53869 0.00114311
102 1 6.10806 6.72443 0.0082905 -3.54076 0.00229342
103 1 5.72742 8.50112 1.81579 -3.54394 0.00954832
104 1 8.24809 5.31226 -3.60671 -3.54071 0.00050474
105 1 7.87685 7.08659 -1.79921 -3.54127 0.00215708
106 1 7.51332 8.85379 0.00829061 -3.5408 0.0017318
107 1 7.16585 10.6148 1.81579 -3.53915 0.00102762
108 1 9.65522 7.44086 -3.60671 -3.54059 0.000593481
109 1 9.30002 9.20592 -1.79921 -3.53955 0.000162038
110 1 8.94957 10.9705 0.00829073 -3.53911 0.000628958
111 1 8.59752 12.7401 1.81579 -3.53971 0.000546921
112 1 11.0808 9.5607 -3.60671 -3.53961 9.878e-05
113 1 10.7263 11.3287 -1.79921 -3.53975 0.000115313
114 1 10.3695 13.0994 0.00829082 -3.54047 8.40714e-05
115 1 10.012 14.8715 1.81579 -3.54106 0.000543921
116 1 12.5014 11.6857 -3.60671 -3.54022 1.46921e-05
117 1 12.145 13.4553 -1.79921 -3.54056 0.000128214
118 1 11.791 15.224 0.00829131 -3.54059 0.00019715
119 1 11.4419 16.9909 1.81579 -3.54012 8.48531e-05
120 1 13.923 13.8091 -3.60671 -3.54038 5.9298e-05
121 1 13.5713 15.5765 -1.79921 -3.54019 3.09064e-05
122 1 13.2226 17.3434 0.00829148 -3.53993 7.6606e-05
123 1 15.3503 15.93 -3.60671 -3.54005 2.48481e-05
124 1 15.0003 17.698 -1.79921 -3.53998 6.79484e-05
125 1 16.7757 18.0535 -3.60671 -3.54008 3.71116e-05
126 1 0.67389 -10.9204 -3.60671 -3.45478 3.26303
127 1 0.357495 -9.13392 -1.79921 -3.2983 8.59825
128 1 1.99089 -8.78481 -3.60671 -3.47987 0.477312
129 1 1.51409 -7.0318 -1.79921 -3.46373 0.481419
130 1 1.09836 -5.40945 0.00828976 -3.50814 0.263728
131 1 0.868244 -3.66345 1.81579 -3.53497 0.2202
132 1 3.34072 -6.70336 -3.60671 -3.52397 0.0625362
133 1 2.98713 -4.99027 -1.79921 -3.51957 0.0418599
134 1 2.61986 -3.26118 0.00828986 -3.54398 0.0528336
135 1 2.29161 -1.47376 1.81579 -3.53102 0.0357566
136 1 4.77283 -4.61667 -3.60671 -3.53357 0.0124796
137 1 4.4017 -2.86257 -1.79921 -3.53752 0.00449209
138 1 4.02079 -1.08762 0.00829033 -3.54545 0.00923935
139 1 3.64531 0.700183 1.81579 -3.54226 0.0180103
140 1 6.16477 -2.4855 -3.60671 -3.53929 0.00181215
141 1 5.78716 -0.716947 -1.79921 -3.54244 0.00257672
142 1 5.42287 1.04841 0.00829049 -3.54231 0.00188256
143 1 5.07758 2.80997 1.81579 -3.5367 0.00378547
144 1 7.5642 -0.358197 -3.60671 -3.5402 0.000688487
145 1 7.2058 1.40519 -1.79921 -3.53954 0.000418794
146 1 6.85008 3.17193 0.00829061 -3.53909 0.00147283
147 1 6.48655 4.9455 1.81579 -3.53869 0.00114311
148 1 8.97967 1.7656 -3.60671 -3.53929 0.000388636
149 1 8.61682 3.53697 -1.79921 -3.53983 0.000251526
150 1 8.24809 5.31226 0.00829065 -3.54071 0.00050474
151 1 7.87685 7.08659 1.81579 -3.54127 0.00215708
152 1 10.3837 3.89842 -3.60671 -3.54034 0.000159815
153 1 10.0177 5.67134 -1.79921 -3.54087 0.000587338
154 1 9.65522 7.44086 0.00829076 -3.54059 0.000593481
155 1 9.30002 9.20592 1.81579 -3.53955 0.000162038
156 1 11.7926 6.02585 -3.60671 -3.54044 0.000234578
157 1 11.4352 7.79396 -1.79921 -3.54002 7.0704e-05
158 1 11.0808 9.5607 0.00829124 -3.53961 9.878e-05
159 1 10.7263 11.3287 1.81579 -3.53975 0.000115313
160 1 13.2129 8.14766 -3.60671 -3.53993 2.46582e-05
161 1 12.8575 9.91632 -1.79921 -3.53993 2.41455e-05
162 1 12.5014 11.6857 0.00829138 -3.54022 1.46921e-05
163 1 12.145 13.4553 1.81579 -3.54056 0.000128214
164 1 14.633 10.2712 -3.60671 -3.54017 1.02852e-05
165 1 14.2773 12.0406 -1.79921 -3.54034 3.69677e-05
166 1 13.923 13.8091 0.00829152 -3.54038 5.9298e-05
167 1 13.5713 15.5765 1.81579 -3.54019 3.09064e-05
168 1 16.0541 12.3941 -3.60671 -3.54028 2.32111e-05
169 1 15.7013 14.1623 -1.79921 -3.5402 1.40883e-05
170 1 15.3503 15.93 0.00829173 -3.54005 2.48481e-05
171 1 15.0003 17.698 1.81579 -3.53998 6.79484e-05
172 1 17.4786 14.5158 -3.60671 -3.54012 1.17584e-05
173 1 17.1272 16.2844 -1.79921 -3.54006 2.80058e-05
174 1 16.7757 18.0535 0.00829194 -3.54008 3.71116e-05
175 1 18.9023 16.6393 -3.60671 -3.54011 2.01458e-05
176 1 18.5498 18.4094 -1.79921 -3.54015 1.77097e-05
177 1 1.01708 -14.5902 -3.60671 -3.48167 0.474346
178 1 0.896751 -12.8465 -1.79921 -3.51477 0.523347
179 1 0.67389 -10.9204 0.00828954 -3.45478 3.26303
180 1 0.357495 -9.13392 1.81579 -3.29811 8.59825
181 1 2.63893 -12.4771 -3.60671 -3.54312 0.123687
182 1 2.35507 -10.6653 -1.79921 -3.52829 0.0758945
183 1 1.99089 -8.78481 0.0082899 -3.47987 0.477299
184 1 1.51409 -7.0318 1.81579 -3.46415 0.481419
185 1 4.05905 -10.3 -3.60671 -3.54623 0.0192168
186 1 3.6992 -8.48742 -1.79921 -3.54255 0.0259903
187 1 3.34072 -6.70336 0.00829001 -3.52397 0.0625362
188 1 2.98713 -4.99027 1.81579 -3.51963 0.0418599
189 1 5.45956 -8.15946 -3.60671 -3.544 0.00353061
190 1 5.1232 -6.38369 -1.79921 -3.53754 0.00495431
191 1 4.77283 -4.61667 0.00829045 -3.53357 0.0124796
192 1 4.4017 -2.86257 1.81579 -3.53752 0.00449209
193 1 6.88844 -6.0395 -3.60671 -3.53975 0.00110274
194 1 6.53496 -4.26111 -1.79921 -3.53846 0.00201238
195 1 6.16477 -2.4855 0.0082905 -3.53929 0.00181215
196 1 5.78716 -0.716947 1.81579 -3.54244 0.00257672
197 1 8.29308 -3.90598 -3.60671 -3.54044 0.000205985
198 1 7.92899 -2.12809 -1.79921 -3.54045 0.00092548
199 1 7.5642 -0.358197 0.00829061 -3.5402 0.000688487
200 1 7.2058 1.40519 1.81579 -3.53954 0.000418794
201 1 9.69692 -1.77596 -3.60671 -3.54044 0.000186182
202 1 9.33868 -0.00393188 -1.79921 -3.5396 0.000220985
203 1 8.97967 1.7656 0.00829073 -3.53929 0.000388636
204 1 8.61682 3.53697 1.81579 -3.53983 0.000251526
205 1 11.1084 0.350712 -3.60671 -3.53977 9.8877e-05
206 1 10.7481 2.12454 -1.79921 -3.53978 0.000116858
207 1 10.3837 3.89842 0.00829117 -3.54034 0.000159815
208 1 10.0177 5.67134 1.81579 -3.54087 0.000587338
209 1 12.5157 2.48085 -3.60671 -3.54022 7.05881e-05
210 1 12.1537 4.25471 -1.79921 -3.54044 0.000208101
211 1 11.7926 6.02585 0.00829131 -3.54044 0.000234578
212 1 11.4352 7.79396 1.81579 -3.54002 7.0704e-05
213 1 13.9262 4.60795 -3.60671 -3.54033 0.00010549
214 1 13.5687 6.37868 -1.79921 -3.54014 5.52511e-05
215 1 13.2129 8.14766 0.00829148 -3.53993 2.46582e-05
216 1 12.8575 9.91632 1.81579 -3.53993 2.41455e-05
217 1 15.3439 6.73125 -3.60671 -3.54008 1.64735e-05
218 1 14.9886 8.50141 -1.79921 -3.54005 1.2049e-05
219 1 14.633 10.2712 0.00829164 -3.54017 1.02852e-05
220 1 14.2773 12.0406 1.81579 -3.54034 3.69677e-05
221 1 16.7633 8.85467 -3.60671 -3.54017 9.20468e-06
222 1 16.4084 10.6248 -1.79921 -3.54025 1.71488e-05
223 1 16.0541 12.3941 0.00829181 -3.54028 2.32111e-05
224 1 15.7013 14.1623 1.81579 -3.5402 1.40883e-05
225 1 18.184 10.9777 -3.60671 -3.54024 1.15478e-05
226 1 17.8308 12.7471 -1.79921 -3.5402 9.08156e-06
227 1 17.4786 14.5158 0.00829203 -3.54012 1.17584e-05
228 1 17.1272 16.2844 1.81579 -3.54006 2.80058e-05
229 1 19.6067 13.1002 -3.60671 -3.54016 6.95381e-06
230 1 19.2545 14.8697 -1.79921 -3.54012 1.4013e-05
231 1 18.9023 16.6393 0.00829228 -3.54011 2.01458e-05
232 1 18.5498 18.4094 1.81579 -3.54015 1.77097e-05
233 1 21.0291 15.224 -3.60671 -3.54014 1.16384e-05
234 1 20.6762 16.9944 -1.79921 -3.54015 1.22732e-05
235 1 22.4493 17.3496 -3.60671 -3.54018 7.4579e-06
236 1 1.89742 -17.9543 -3.60671 -3.45632 0.657349
237 1 1.38695 -16.1919 -1.79921 -3.43562 0.711093
238 1 1.01708 -14.5902 0.00828976 -3.48167 0.474346
239 1 0.896751 -12.8465 1.81579 -3.51477 0.523347
240 1 3.26773 -15.901 -3.60671 -3.51762 0.0803125
241 1 2.96013 -14.2086 -1.79921 -3.50871 0.0793741
242 1 2.63893 -12.4771 0.00828986 -3.54312 0.123687
243 1 2.35507 -10.6653 1.81579 -3.52831 0.0758945
244 1 4.76275 -13.8475 -3.60671 -3.53139 0.0190768
245 1 4.41844 -12.0922 -1.79921 -3.53714 0.0127555
246 1 4.05905 -10.3 0.00829033 -3.54623 0.0192168
247 1 3.6992 -8.48742 1.81579 -3.54257 0.0259903
248 1 6.17722 -11.7188 -3.60671 -3.53947 0.00100039
249 1 5.8122 -9.94023 -1.79921 -3.5437 0.00357558
250 1 5.45956 -8.15946 0.00829049 -3.544 0.00353061
251 1 5.1232 -6.38369 1.81579 -3.53754 0.00495431
252 1 7.58265 -9.58735 -3.60671 -3.54085 0.000445967
253 1 7.23379 -7.81528 -1.79921 -3.5405 0.000462067
254 1 6.88844 -6.0395 0.00829061 -3.53975 0.00110274
255 1 6.53496 -4.26111 1.81579 -3.53846 0.00201238
256 1 9.00389 -7.46267 -3.60671 -3.53971 0.000242902
257 1 8.65121 -5.68601 -1.79921 -3.54011 0.000288682
258 1 8.29308 -3.90598 0.00829065 -3.54044 0.000205985
259 1 7.92899 -2.12809 1.81579 -3.54045 0.00092548
260 1 10.4145 -5.33043 -3.60671 -3.54034 3.36008e-05
261 1 10.056 -3.55223 -1.79921 -3.54072 0.000100715
262 1 9.69692 -1.77596 0.00829076 -3.54044 0.000186182
263 1 9.33868 -0.00393188 1.81579 -3.5396 0.000220985
264 1 11.8227 -3.19904 -3.60671 -3.54044 2.5555e-05
265 1 11.4659 -1.42359 -1.79921 -3.54016 1.84613e-05
266 1 11.1084 0.350712 0.00829124 -3.53977 9.8877e-05
267 1 10.7481 2.12454 1.81579 -3.53978 0.000116858
268 1 13.2342 -1.06995 -3.60671 -3.54009 9.07954e-06
269 1 12.8761 0.705598 -1.79921 -3.54006 2.38958e-05
270 1 12.5157 2.48085 0.00829138 -3.54022 7.05881e-05
271 1 12.1537 4.25471 1.81579 -3.54044 0.000208101
272 1 14.6442 1.05988 -3.60671 -3.54025 2.16275e-05
273 1 14.2851 2.83482 -1.79921 -3.54035 7.46541e-05
274 1 13.9262 4.60795 0.00829152 -3.54033 0.00010549
275 1 13.5687 6.37868 1.81579 -3.54014 5.52511e-05
276 1 16.0563 3.18746 -3.60671 -3.54031 4.33526e-05
277 1 15.6997 4.96011 -1.79921 -3.54021 3.24896e-05
278 1 15.3439 6.73125 0.00829173 -3.54008 1.64735e-05
279 1 14.9886 8.50141 1.81579 -3.54005 1.2049e-05
280 1 17.4732 5.3122 -3.60671 -3.54018 9.56765e-06
281 1 17.1183 7.0838 -1.79921 -3.54014 7.30987e-06
282 1 16.7633 8.85467 0.00829194 -3.54017 9.20468e-06
283 1 16.4084 10.6248 1.81579 -3.54025 1.71488e-05
284 1 18.8922 7.43627 -3.60671 -3.5402 5.09188e-06
285 1 18.5379 9.2074 -1.79921 -3.54023 8.79262e-06
286 1 18.184 10.9777 0.00829217 -3.54024 1.15478e-05
287 1 17.8308 12.7471 1.81579 -3.5402 9.08156e-06
288 1 20.3125 9.55988 -3.60671 -3.54023 5.18028e-06
289 1 19.9594 11.3304 -1.79921 -3.54021 5.20533e-06
290 1 19.6067 13.1002 0.00829275 -3.54016 6.95381e-06
291 1 19.2545 14.8697 1.81579 -3.54012 1.4013e-05
292 1 21.7342 11.6832 -3.60671 -3.54019 3.50219e-06
293 1 21.3816 13.4537 -1.79921 -3.54016 7.36467e-06
294 1 21.0291 15.224 0.00829298 -3.54014 1.16384e-05
295 1 20.6762 16.9944 1.81579 -3.54015 1.22732e-05
296 1 23.1556 13.8074 -3.60671 -3.54017 6.42954e-06
297 1 22.8026 15.5784 -1.79921 -3.54017 8.02365e-06
298 1 22.4493 17.3496 0.00829317 -3.54018 7.4579e-06
299 1 24.5755 15.933 -3.60671 -3.54019 5.19774e-06
300 1 24.2218 17.7047 -1.79921 -3.54019 4.66498e-06
301 1 25.9939 18.0598 -3.60671 -3.5402 2.90303e-06
302 1 1.89742 -17.9543 0.0082899 -3.45632 0.657349
303 1 1.38695 -16.1919 1.81579 -3.43562 0.711093
304 1 3.61261 -17.6758 -1.79921 -3.54283 0.0613567
305 1 3.26773 -15.901 0.00829001 -3.51762 0.0803125
306 1 2.96013 -14.2086 1.81579 -3.50871 0.0793741
307 1 5.3953 -17.369 -3.60671 -3.54387 0.00895474
308 1 5.0834 -15.605 -1.79921 -3.53514 0.00879528
309 1 4.76275 -13.8475 0.00829045 -3.53139 0.0190768
310 1 4.41844 -12.0922 1.81579 -3.53714 0.0127555
311 1 6.86581 -15.2718 -3.60671 -3.53859 0.00391097
312 1 6.53195 -13.4973 -1.79921 -3.53759 0.00399887
313 1 6.17722 -11.7188 0.0082905 -3.53947 0.00100039
314 1 5.8122 -9.94023 1.81579 -3.5437 0.00357558
315 1 8.29241 -13.1438 -3.60671 -3.54022 0.000390915
316 1 7.93845 -11.3633 -1.79921 -3.54063 0.000369657
317 1 7.58265 -9.58735 0.00829061 -3.54085 0.000445967
318 1 7.23379 -7.81528 1.81579 -3.5405 0.000462067
319 1 9.70504 -11.0123 -3.60671 -3.54062 7.79119e-05
320 1 9.35429 -9.23688 -1.79921 -3.53992 3.5525e-05
321 1 9.00389 -7.46267 0.00829073 -3.53971 0.000242902
322 1 8.65121 -5.68601 1.81579 -3.54011 0.000288682
323 1 11.1232 -8.88444 -3.60671 -3.53992 5.80728e-05
324 1 10.7704 -7.10805 -1.79921 -3.5399 8.35054e-05
325 1 10.4145 -5.33043 0.00829117 -3.54034 3.36008e-05
326 1 10.056 -3.55223 1.81579 -3.54072 0.000100715
327 1 12.5362 -6.75312 -3.60671 -3.54018 1.57969e-05
328 1 12.1798 -4.97578 -1.79921 -3.54038 1.77273e-05
329 1 11.8227 -3.19904 0.00829131 -3.54044 2.5555e-05
330 1 11.4659 -1.42359 1.81579 -3.54016 1.84613e-05
331 1 13.947 -4.6217 -3.60671 -3.5403 7.54814e-06
332 1 13.5908 -2.84561 -1.79921 -3.54021 2.04724e-06
333 1 13.2342 -1.06995 0.00829148 -3.54009 9.07954e-06
334 1 12.8761 0.705598 1.81579 -3.54006 2.38958e-05
335 1 15.3591 -2.49165 -3.60671 -3.54017 1.98713e-06
336 1 15.0022 -0.715824 -1.79921 -3.54016 4.58536e-06
337 1 14.6442 1.05988 0.00829164 -3.54025 2.16275e-05
338 1 14.2851 2.83482 1.81579 -3.54035 7.46541e-05
339 1 16.771 -0.361854 -3.60671 -3.54025 9.9638e-06
340 1 16.4136 1.4133 -1.79921 -3.54031 2.83249e-05
341 1 16.0563 3.18746 0.00829181 -3.54031 4.33526e-05
342 1 15.6997 4.96011 1.81579 -3.54021 3.24896e-05
343 1 18.1845 1.76617 -3.60671 -3.54029 2.02167e-05
344 1 17.8286 3.5397 -1.79921 -3.54025 1.71672e-05
345 1 17.4732 5.3122 0.00829203 -3.54018 9.56765e-06
346 1 17.1183 7.0838 1.81579 -3.54014 7.30987e-06
347 1 19.6013 3.89199 -3.60671 -3.54022 6.59861e-06
348 1 19.2467 5.66444 -1.79921 -3.5402 4.1572e-06
349 1 18.8922 7.43627 0.00829264 -3.5402 5.09188e-06
350 1 18.5379 9.2074 1.81579 -3.54023 8.79262e-06
351 1 21.0201 6.01684 -3.60671 -3.54022 2.89076e-06
352 1 20.6661 7.78867 -1.79921 -3.54023 3.92419e-06
353 1 20.3125 9.55988 0.00829288 -3.54023 5.18028e-06
354 1 19.9594 11.3304 1.81579 -3.54021 5.20533e-06
355 1 22.4401 8.14116 -3.60671 -3.54023 2.13391e-06
356 1 22.0869 9.91243 -1.79921 -3.54022 2.23106e-06
357 1 21.7342 11.6832 0.0082931 -3.54019 3.50219e-06
358 1 21.3816 13.4537 1.81579 -3.54016 7.36467e-06
359 1 23.861 10.2653 -3.60671 -3.5402 1.48109e-06
360 1 23.5083 12.0364 -1.79921 -3.54018 3.55938e-06
361 1 23.1556 13.8074 0.00829329 -3.54017 6.42954e-06
362 1 22.8026 15.5784 1.81579 -3.54017 8.02365e-06
363 1 25.2819 12.39 -3.60671 -3.54019 3.38966e-06
364 1 24.9288 14.1615 -1.79921 -3.54018 4.81708e-06
365 1 24.5755 15.933 0.00829347 -3.54019 5.19774e-06
366 1 24.2218 17.7047 1.81579 -3.54019 4.66498e-06
367 1 26.7016 14.5158 -3.60671 -3.5402 3.34437e-06
368 1 26.3479 16.2877 -1.79921 -3.5402 3.28689e-06
369 1 25.9939 18.0598 0.00829371 -3.5402 2.90303e-06
370 1 28.12 16.6425 -3.60671 -3.5402 2.0148e-06
371 1 27.7657 18.4149 -1.79921 -3.5402 1.74122e-06
372 1 3.61261 -17.6758 1.81579 -3.54283 0.0613567
373 1 5.3953 -17.369 0.00829049 -3.54387 0.00895474
374 1 5.0834 -15.605 1.81579 -3.53514 0.00879528
375 1 7.19075 -17.0397 -1.79921 -3.5398 0.00161867
376 1 6.86581 -15.2718 0.00829061 -3.53859 0.00391097
377 1 6.53195 -13.4973 1.81579 -3.53759 0.00399887
378 1 8.97615 -16.6934 -3.60671 -3.53918 0.00113506
379 1 8.63785 -14.9224 -1.79921 -3.5396 0.00149082
380 1 8.29241 -13.1438 0.00829065 -3.54022 0.000390915
381 1 7.93845 -11.3633 1.81579 -3.54063 0.000369657
382 1 10.4067 -14.567 -3.60671 -3.54021 0.000305085
383 1 10.0566 -12.79 -1.79921 -3.54076 8.55381e-05
384 1 9.70504 -11.0123 0.00829076 -3.54062 7.79119e-05
385 1 9.35429 -9.23688 1.81579 -3.53992 3.5525e-05
386 1 11.825 -12.4359 -3.60671 -3.54055 3.86155e-05
387 1 11.474 -10.6602 -1.79921 -3.54031 1.94732e-05
388 1 11.1232 -8.88444 0.00829124 -3.53992 5.80728e-05
389 1 10.7704 -7.10805 1.81579 -3.5399 8.35054e-05
390 1 13.2432 -10.3061 -3.60671 -3.54018 3.36005e-05
391 1 12.8906 -8.53011 -1.79921 -3.5401 3.66557e-05
392 1 12.5362 -6.75312 0.00829138 -3.54018 1.57969e-05
393 1 12.1798 -4.97578 1.81579 -3.54038 1.77273e-05
394 1 14.6581 -8.17477 -3.60671 -3.54023 1.5952e-05
395 1 14.3029 -6.39828 -1.79921 -3.54029 8.4255e-06
396 1 13.947 -4.6217 0.00829152 -3.5403 7.54814e-06
397 1 13.5908 -2.84561 1.81579 -3.54021 2.04724e-06
398 1 16.071 -6.04337 -3.60671 -3.54028 6.39093e-06
399 1 15.7152 -4.26749 -1.79921 -3.54023 3.13986e-06
400 1 15.3591 -2.49165 0.00829173 -3.54017 1.98713e-06
401 1 15.0022 -0.715824 1.81579 -3.54016 4.58536e-06
402 1 17.4841 -3.91292 -3.60671 -3.54022 3.36059e-06
403 1 17.1278 -2.13739 -1.79921 -3.54021 3.5823e-06
404 1 16.771 -0.361854 0.00829194 -3.54025 9.9638e-06
405 1 16.4136 1.4133 1.81579 -3.54031 2.83249e-05
406 1 18.8973 -1.78314 -3.60671 -3.54025 6.90503e-06
407 1 18.5408 -0.00823526 -1.79921 -3.54028 1.38848e-05
408 1 18.1845 1.76617 0.00829217 -3.54029 2.02167e-05
409 1 17.8286 3.5397 1.81579 -3.54025 1.71672e-05
410 1 20.3118 0.345155 -3.60671 -3.54027 1.14218e-05
411 1 19.9563 2.11889 -1.79921 -3.54026 1.05669e-05
412 1 19.6013 3.89199 0.00829275 -3.54022 6.59861e-06
413 1 19.2467 5.66444 1.81579 -3.5402 4.1572e-06
414 1 21.7287 2.4717 -3.60671 -3.54024 5.39242e-06
415 1 21.3742 4.2445 -1.79921 -3.54022 3.40349e-06
416 1 21.0201 6.01684 0.00829298 -3.54022 2.89076e-06
417 1 20.6661 7.78867 1.81579 -3.54023 3.92419e-06
418 1 23.1473 4.59721 -3.60671 -3.54023 2.29266e-06
419 1 22.7935 6.36939 -1.79921 -3.54023 2.06557e-06
420 1 22.4401 8.14116 0.00829317 -3.54023 2.13391e-06
421 1 22.0869 9.91243 1.81579 -3.54022 2.23106e-06
422 1 24.5671 6.72216 -3.60671 -3.54023 1.13206e-06
423 1 24.2139 8.49388 -1.79921 -3.54022 9.21397e-07
424 1 23.861 10.2653 0.00829339 -3.5402 1.48109e-06
425 1 23.5083 12.0364 1.81579 -3.54018 3.55938e-06
426 1 25.9876 8.84693 -3.60671 -3.54021 6.93716e-07
427 1 25.6347 10.6185 -1.79921 -3.5402 1.69168e-06
428 1 25.2819 12.39 0.00829362 -3.54019 3.38966e-06
429 1 24.9288 14.1615 1.81579 -3.54018 4.81708e-06
430 1 27.408 10.9721 -3.60671 -3.5402 1.86926e-06
431 1 27.0549 12.7439 -1.79921 -3.5402 2.8483e-06
432 1 26.7016 14.5158 0.00829383 -3.5402 3.34437e-06
433 1 26.3479 16.2877 1.81579 -3.5402 3.28689e-06
434 1 28.8275 13.0981 -3.60671 -3.5402 2.17524e-06
435 1 28.4739 14.8702 -1.79921 -3.5402 2.19509e-06
436 1 28.12 16.6425 0.00829405 -3.5402 2.0148e-06
437 1 27.7657 18.4149 1.81579 -3.5402 1.74122e-06
438 1 30.2459 15.2248 -3.60671 -3.54021 1.35014e-06
439 1 29.8918 16.9973 -1.79921 -3.54021 1.20929e-06
440 1 31.6635 17.3521 -3.60671 -3.54021 7.6975e-07
441 1 7.19075 -17.0397 1.81579 -3.5398 0.00161867
442 1 8.97615 -16.6934 0.00829073 -3.53918 0.00113506
443 1 8.63785 -14.9224 1.81579 -3.5396 0.00149082
444 1 11.0973 -18.1086 -3.60671 -3.53958 0.000268194
445 1 10.7534 -16.3401 -1.79921 -3.53959 0.000522605
446 1 10.4067 -14.567 0.00829082 -3.54021 0.000305085
447 1 10.0566 -12.79 1.81579 -3.54076 8.55381e-05
448 1 12.5267 -15.984 -3.60671 -3.54003 0.000147248
449 1 12.1763 -14.2109 -1.79921 -3.54038 5.64086e-05
450 1 11.825 -12.4359 0.00829131 -3.54055 3.86155e-05
451 1 11.474 -10.6602 1.81579 -3.54031 1.94732e-05
452 1 13.9471 -13.8547 -3.60671 -3.54032 1.87778e-05
453 1 13.5951 -12.0809 -1.79921 -3.5403 2.18602e-05
454 1 13.2432 -10.3061 0.00829148 -3.54018 3.36005e-05
455 1 12.8906 -8.53011 1.81579 -3.5401 3.66557e-05
456 1 15.3654 -11.725 -3.60671 -3.5402 1.8825e-05
457 1 15.0122 -9.95046 -1.79921 -3.54019 2.37339e-05
458 1 14.6581 -8.17477 0.00829164 -3.54023 1.5952e-05
459 1 14.3029 -6.39828 1.81579 -3.54029 8.4255e-06
460 1 16.7814 -9.59425 -3.60671 -3.54022 1.13283e-05
461 1 16.4264 -7.81909 -1.79921 -3.54027 8.58345e-06
462 1 16.071 -6.04337 0.00829181 -3.54028 6.39093e-06
463 1 15.7152 -4.26749 1.81579 -3.54023 3.13986e-06
464 1 18.1955 -7.46331 -3.60671 -3.54026 5.20843e-06
465 1 17.8399 -5.68826 -1.79921 -3.54025 4.58795e-06
466 1 17.4841 -3.91292 0.00829203 -3.54022 3.36059e-06
467 1 17.1278 -2.13739 1.81579 -3.54021 3.5823e-06
468 1 19.6095 -5.33299 -3.60671 -3.54023 3.59751e-06
469 1 19.2535 -3.55815 -1.79921 -3.54023 4.16046e-06
470 1 18.8973 -1.78314 0.00829264 -3.54025 6.90503e-06
471 1 18.5408 -0.00823526 1.81579 -3.54028 1.38848e-05
472 1 21.0237 -3.20341 -3.60671 -3.54025 5.17875e-06
473 1 20.6677 -1.42903 -1.79921 -3.54027 8.47767e-06
474 1 20.3118 0.345155 0.00829288 -3.54027 1.14218e-05
475 1 19.9563 2.11889 1.81579 -3.54026 1.05669e-05
476 1 22.4389 -1.07505 -3.60671 -3.54026 7.2321e-06
477 1 22.0836 0.698494 -1.79921 -3.54026 7.29844e-06
478 1 21.7287 2.4717 0.0082931 -3.54024 5.39242e-06
479 1 21.3742 4.2445 1.81579 -3.54022 3.40349e-06
480 1 23.856 1.0519 -3.60671 -3.54024 4.37558e-06
481 1 23.5015 2.8247 -1.79921 -3.54023 3.1588e-06
482 1 23.1473 4.59721 0.00829329 -3.54023 2.29266e-06
483 1 22.7935 6.36939 1.81579 -3.54023 2.06557e-06
484 1 25.2745 3.17787 -3.60671 -3.54023 2.00434e-06
485 1 24.9206 4.95014 -1.79921 -3.54023 1.50724e-06
486 1 24.5671 6.72216 0.00829347 -3.54023 1.13206e-06
487 1 24.2139 8.49388 1.81579 -3.54022 9.21397e-07
488 1 26.694 5.3033 -3.60671 -3.54023 8.34739e-07
489 1 26.3407 7.07521 -1.79921 -3.54022 5.57891e-07
490 1 25.9876 8.84693 0.00829371 -3.54021 6.93716e-07
491 1 25.6347 10.6185 1.81579 -3.5402 1.69168e-06
492 1 28.1141 7.42856 -3.60671 -3.54022 4.41407e-07
493 1 27.761 9.20035 -1.79921 -3.54021 9.11922e-07
494 1 27.408 10.9721 0.00829393 -3.5402 1.86926e-06
495 1 27.0549 12.7439 1.81579 -3.5402 2.8483e-06
496 1 29.5341 9.5541 -3.60671 -3.54021 1.13968e-06
497 1 29.1809 11.326 -1.79921 -3.54021 1.80153e-06
498 1 28.8275 13.0981 0.00829414 -3.5402 2.17524e-06
499 1 28.4739 14.8702 1.81579 -3.5402 2.19509e-06
500 1 30.9535 11.6802 -3.60671 -3.54021 1.52104e-06
501 1 30.5998 13.4525 -1.79921 -3.54021 1.48859e-06
502 1 30.2459 15.2248 0.00829434 -3.54021 1.35014e-06
503 1 29.8918 16.9973 1.81579 -3.54021 1.20929e-06
504 1 32.372 13.807 -3.60671 -3.54021 8.73529e-07
505 1 32.0179 15.5795 -1.79921 -3.54021 8.17316e-07
506 1 31.6635 17.3521 0.00829449 -3.54021 7.6975e-07
507 1 33.7897 15.9342 -3.60671 -3.54021 6.12846e-07
508 1 33.4352 17.7069 -1.79921 -3.54022 5.58384e-07
509 1 35.2068 18.0617 -3.60671 -3.54023 3.74244e-07
510 1 11.0973 -18.1086 0.00829124 -3.53958 0.000268194
511 1 10.7534 -16.3401 1.81579 -3.53959 0.000522605
512 1 12.8752 -17.7545 -1.79921 -3.53983 0.00018299
513 1 12.5267 -15.984 0.00829138 -3.54003 0.000147248
514 1 12.1763 -14.2109 1.81579 -3.54038 5.64086e-05
515 1 14.6501 -17.3986 -3.60671 -3.54006 7.43224e-05
516 1 14.299 -15.6274 -1.79921 -3.54021 3.74008e-05
517 1 13.9471 -13.8547 0.00829152 -3.54032 1.87778e-05
518 1 13.5951 -12.0809 1.81579 -3.5403 2.18602e-05
519 1 16.0712 -15.2708 -3.60671 -3.54024 1.37413e-05
520 1 15.7184 -13.4983 -1.79921 -3.54024 1.2277e-05
521 1 15.3654 -11.725 0.00829173 -3.5402 1.8825e-05
522 1 15.0122 -9.95046 1.81579 -3.54019 2.37339e-05
523 1 17.4897 -13.1418 -3.60671 -3.5402 9.61736e-06
524 1 17.1357 -11.3685 -1.79921 -3.5402 1.20622e-05
525 1 16.7814 -9.59425 0.00829194 -3.54022 1.13283e-05
526 1 16.4264 -7.81909 1.81579 -3.54027 8.58345e-06
527 1 18.9061 -11.0119 -3.60671 -3.54021 5.75572e-06
528 1 18.551 -9.23791 -1.79921 -3.54024 5.2419e-06
529 1 18.1955 -7.46331 0.00829217 -3.54026 5.20843e-06
530 1 17.8399 -5.68826 1.81579 -3.54025 4.58795e-06
531 1 20.321 -8.88166 -3.60671 -3.54024 2.61985e-06
532 1 19.9653 -7.10752 -1.79921 -3.54024 3.21042e-06
533 1 19.6095 -5.33299 0.00829275 -3.54023 3.59751e-06
534 1 19.2535 -3.55815 1.81579 -3.54023 4.16046e-06
535 1 21.7356 -6.7518 -3.60671 -3.54023 2.18048e-06
536 1 21.3797 -4.97772 -1.79921 -3.54023 3.25067e-06
537 1 21.0237 -3.20341 0.00829298 -3.54025 5.17875e-06
538 1 20.6677 -1.42903 1.81579 -3.54027 8.47767e-06
539 1 23.1505 -4.62258 -3.60671 -3.54024 3.30078e-06
540 1 22.7946 -2.8488 -1.79921 -3.54025 5.37391e-06
541 1 22.4389 -1.07505 0.00829317 -3.54026 7.2321e-06
542 1 22.0836 0.698494 1.81579 -3.54026 7.29844e-06
543 1 24.5662 -2.49436 -3.60671 -3.54025 4.52371e-06
544 1 24.2109 -0.721142 -1.79921 -3.54025 5.04668e-06
545 1 23.856 1.0519 0.00829339 -3.54024 4.37558e-06
546 1 23.5015 2.8247 1.81579 -3.54023 3.1588e-06
547 1 25.9833 -0.367252 -3.60671 -3.54024 3.23472e-06
548 1 25.6287 1.4054 -1.79921 -3.54023 2.66034e-06
549 1 25.2745 3.17787 0.00829362 -3.54023 2.00434e-06
550 1 24.9206 4.95014 1.81579 -3.54023 1.50724e-06
551 1 27.4017 1.759 -3.60671 -3.54023 1.5816e-06
552 1 27.0477 3.53123 -1.79921 -3.54023 1.19109e-06
553 1 26.694 5.3033 0.00829383 -3.54023 8.34739e-07
554 1 26.3407 7.07521 1.81579 -3.54022 5.57891e-07
555 1 28.821 3.88475 -3.60671 -3.54023 6.28606e-07
556 1 28.4674 5.65671 -1.79921 -3.54022 4.43208e-07
557 1 28.1141 7.42856 0.00829405 -3.54022 4.41407e-07
558 1 27.761 9.20035 1.81579 -3.54021 9.11922e-07
559 1 30.2407 6.01036 -3.60671 -3.54022 3.08749e-07
560 1 29.8874 7.78222 -1.79921 -3.54021 5.4868e-07
561 1 29.5341 9.5541 0.00829425 -3.54021 1.13968e-06
562 1 29.1809 11.326 1.81579 -3.54021 1.80153e-06
563 1 31.6604 8.13614 -3.60671 -3.54021 7.23534e-07
564 1 31.307 9.90813 -1.79921 -3.54021 1.253e-06
565 1 30.9535 11.6802 0.00829441 -3.54021 1.52104e-06
566 1 30.5998 13.4525 1.81579 -3.54021 1.48859e-06
567 1 33.0796 10.2624 -3.60671 -3.54021 1.18134e-06
568 1 32.7259 12.0346 -1.79921 -3.54021 1.04501e-06
569 1 32.372 13.807 0.00829454 -3.54021 8.73529e-07
570 1 32.0179 15.5795 1.81579 -3.54021 8.17316e-07
571 1 34.4981 12.3892 -3.60671 -3.54021 4.86613e-07
572 1 34.144 14.1617 -1.79921 -3.54021 4.86006e-07
573 1 33.7897 15.9342 0.00829466 -3.54021 6.12846e-07
574 1 33.4352 17.7069 1.81579 -3.54022 5.58384e-07
575 1 35.9159 14.5163 -3.60671 -3.54021 4.80089e-07
576 1 35.5615 16.289 -1.79921 -3.54023 6.78643e-07
577 1 35.2068 18.0617 0.00829474 -3.54023 3.74244e-07