ITEM: TIMESTEP
0
ITEM: NUMBER OF ATOMS
2504
ITEM: BOX BOUNDS xy xz yz mm pp pp
-5.5498871899999997e+01 5.5498871899999997e+01 0.0000000000000000e+00
-1.8432957300000002e+01 1.8432957300000002e+01 0.0000000000000000e+00
-3.6150000000000002e+00 3.6150000000000002e+00 0.0000000000000000e+00
ITEM: ATOMS id type x y z c_eng c_csym
1 1 0.628084 16.7966 -3.59427 -3.43649 3.45791
2 1 0.295045 -18.2469 -1.78677 -3.27747 8.95377
3 1 0.964588 13.0708 -3.59427 -3.50677 0.281272
4 1 0.828624 14.8334 -1.78677 -3.504 0.579714
5 1 0.628084 16.7966 0.0207286 -3.43649 3.45791
6 1 0.295045 -18.2469 1.82823 -3.27747 8.95377
7 1 2.55787 15.1905 -3.59427 -3.53939 0.117433
8 1 2.27633 17.0365 -1.78677 -3.51708 0.0908341
9 1 3.95934 17.3872 -3.59427 -3.54304 0.0317302
10 1 0.448403 7.37354 -3.59427 -3.52062 0.236364
11 1 0.110841 9.09981 -1.78677 -3.44656 0.814555
12 1 1.76403 9.57724 -3.59427 -3.52169 0.10389
13 1 1.29274 11.3514 -1.78677 -3.5224 0.244086
14 1 0.964588 13.0708 0.0207287 -3.50677 0.281272
15 1 0.828624 14.8334 1.82823 -3.504 0.579714
16 1 3.15231 11.6849 -3.59427 -3.52994 0.0269077
17 1 2.85385 13.4074 -1.78677 -3.51987 0.0574231
18 1 2.55787 15.1905 0.0207287 -3.53939 0.117433
19 1 2.27633 17.0365 1.82823 -3.51708 0.0908341
20 1 4.65162 13.7787 -3.59427 -3.53393 0.0128367
21 1 4.31472 15.5581 -1.78677 -3.5375 0.0200014
22 1 3.95934 17.3872 0.0207287 -3.54304 0.0317302
23 1 6.06951 15.9296 -3.59427 -3.54123 0.00430947
24 1 5.71131 17.7213 -1.78677 -3.5451 0.0178216
25 1 7.50045 18.0541 -3.59427 -3.54195 0.00511699
26 1 1.13852 3.78276 -3.59427 -3.54566 0.0341352
27 1 0.792724 5.58104 -1.78677 -3.54634 0.0123852
28 1 0.448403 7.37354 0.0207286 -3.52062 0.236203
29 1 0.110841 9.09981 1.82823 -3.44751 0.814555
30 1 2.5524 5.94715 -3.59427 -3.54063 0.00745694
31 1 2.20209 7.73746 -1.78677 -3.52486 0.0374258
32 1 1.76403 9.57724 0.0207287 -3.52169 0.10389
33 1 1.29274 11.3514 1.82823 -3.52245 0.244086
34 1 3.91891 8.13424 -3.59427 -3.54164 0.0110892
35 1 3.51599 9.92777 -1.78677 -3.5429 0.046077
36 1 3.15231 11.6849 0.0207287 -3.52994 0.0269077
37 1 2.85385 13.4074 1.82823 -3.51987 0.0574231
38 1 5.31552 10.268 -3.59427 -3.54096 0.00733737
39 1 4.981 12.0207 -1.78677 -3.53425 0.00504555
40 1 4.65162 13.7787 0.0207296 -3.53393 0.0128367
41 1 4.31472 15.5581 1.82823 -3.5375 0.0200014
42 1 6.77523 12.3764 -3.59427 -3.53756 0.00238728
43 1 6.42845 14.1459 -1.78677 -3.53788 0.00213007
44 1 6.06951 15.9296 0.0207296 -3.54123 0.00430947
45 1 5.71131 17.7213 1.82823 -3.5451 0.0178216
46 1 8.20129 14.509 -3.59427 -3.54045 0.000564255
47 1 7.84471 16.2832 -1.78677 -3.54168 0.00348383
48 1 7.50045 18.0541 0.0207297 -3.54195 0.00511699
49 1 9.63414 16.6299 -3.59427 -3.54079 0.00134642
50 1 9.29867 18.3916 -1.78677 -3.53986 0.000884519
51 1 0.472892 -1.86962 -3.59427 -3.52321 0.108984
52 1 0.148569 -0.168848 -1.78677 -3.48719 0.254798
53 1 1.91524 0.25195 -3.59427 -3.53406 0.0148705
54 1 1.52402 2.0077 -1.78677 -3.5381 0.0110547
55 1 1.13852 3.78276 0.0207287 -3.54566 0.0339742
56 1 0.792724 5.58104 1.82823 -3.54525 0.0123852
57 1 3.29408 2.41183 -3.59427 -3.53878 0.00112534
58 1 2.91571 4.17369 -1.78677 -3.54084 0.00259022
59 1 2.5524 5.94715 0.0207287 -3.54063 0.00745694
60 1 2.20209 7.73746 1.82823 -3.52504 0.0374258
61 1 4.68926 4.56231 -3.59427 -3.53875 0.000738807
62 1 4.31367 6.33542 -1.78677 -3.53769 0.004187
63 1 3.91891 8.13424 0.0207287 -3.54164 0.0110892
64 1 3.51599 9.92777 1.82823 -3.5429 0.046077
65 1 6.06916 6.72293 -3.59427 -3.54104 0.00249842
66 1 5.68189 8.50047 -1.78677 -3.54313 0.0100769
67 1 5.31552 10.268 0.0207296 -3.54096 0.00733737
68 1 4.981 12.0207 1.82823 -3.53425 0.00504555
69 1 7.47059 8.85731 -3.59427 -3.54086 0.00257061
70 1 7.11795 10.6158 -1.78677 -3.53878 0.000742829
71 1 6.77523 12.3764 0.0207297 -3.53756 0.00238728
72 1 6.42845 14.1459 1.82823 -3.53788 0.00213007
73 1 8.90953 10.973 -3.59427 -3.53899 0.000397383
74 1 8.55737 12.7375 -1.78677 -3.5393 0.000445316
75 1 8.20129 14.509 0.0207297 -3.54045 0.000564255
76 1 7.84471 16.2832 1.82823 -3.54168 0.00348383
77 1 10.3379 13.0977 -3.59427 -3.5403 0.000143541
78 1 9.98259 14.8646 -1.78677 -3.54091 0.000880845
79 1 9.63414 16.6299 0.0207297 -3.54079 0.00134642
80 1 9.29867 18.3916 1.82823 -3.53986 0.000884519
81 1 11.7707 15.2165 -3.59427 -3.54049 0.000414197
82 1 11.4274 16.9772 -1.78677 -3.53998 0.000273689
83 1 13.2179 17.3281 -3.59427 -3.53968 0.00020486
84 1 1.2037 -5.38114 -3.59427 -3.54244 0.0847189
85 1 0.823268 -3.63398 -1.78677 -3.55069 0.0450319
86 1 0.472892 -1.86962 0.0207286 -3.52321 0.108822
87 1 0.148569 -0.168848 1.82823 -3.48704 0.254798
88 1 2.62622 -3.23911 -3.59427 -3.54152 0.00844114
89 1 2.27871 -1.50779 -1.78677 -3.5344 0.0109116
90 1 1.91524 0.25195 0.0207287 -3.53406 0.01479
91 1 1.52402 2.0077 1.82823 -3.53796 0.0110547
92 1 4.05724 -1.10901 -3.59427 -3.53968 0.00298986
93 1 3.6788 0.646963 -1.78677 -3.53983 0.000543171
94 1 3.29408 2.41183 0.0207287 -3.53878 0.00112534
95 1 2.91571 4.17369 1.82823 -3.54102 0.00259022
96 1 5.44718 1.0372 -3.59427 -3.54082 0.0004297
97 1 5.0664 2.79805 -1.78677 -3.54009 0.000141194
98 1 4.68926 4.56231 0.0207296 -3.53875 0.000738807
99 1 4.31367 6.33542 1.82823 -3.53769 0.004187
100 1 6.83743 3.1797 -3.59427 -3.53963 0.00030411
101 1 6.45653 4.94712 -1.78677 -3.53921 0.000446026
102 1 6.06916 6.72293 0.0207296 -3.54104 0.00249842
103 1 5.68189 8.50047 1.82823 -3.54313 0.0100769
104 1 8.22319 5.32396 -3.59427 -3.5404 0.000893055
105 1 7.84152 7.09304 -1.78677 -3.54129 0.00275061
106 1 7.47059 8.85731 0.0207297 -3.54086 0.00257061
107 1 7.11795 10.6158 1.82823 -3.53878 0.000742829
108 1 9.62505 7.45338 -3.59427 -3.54039 0.00105213
109 1 9.2632 9.21334 -1.78677 -3.53956 0.000279407
110 1 8.90953 10.973 0.0207297 -3.53899 0.000397383
111 1 8.55737 12.7375 1.82823 -3.5393 0.000445316
112 1 11.0512 9.57054 -3.59427 -3.53947 7.89853e-05
113 1 10.6945 11.3326 -1.78677 -3.53963 6.5603e-05
114 1 10.3379 13.0977 0.0207297 -3.5403 0.000143541
115 1 9.98259 14.8646 1.82823 -3.54091 0.000880845
116 1 12.4776 11.6903 -3.59427 -3.54008 5.61126e-05
117 1 12.1219 13.4539 -1.78677 -3.54047 0.000253892
118 1 11.7707 15.2165 0.0207306 -3.54049 0.000414197
119 1 11.4274 16.9772 1.82823 -3.53998 0.000273689
120 1 13.9083 13.8072 -3.59427 -3.54027 0.000142549
121 1 13.5603 15.5679 -1.78677 -3.54005 9.96184e-05
122 1 13.2179 17.3281 0.0207306 -3.53968 0.00020486
123 1 15.3476 15.9207 -3.59427 -3.53986 8.45266e-05
124 1 15.0034 17.6825 -1.78677 -3.5397 0.000246691
125 1 16.7842 18.0391 -3.59427 -3.53984 0.000198413
126 1 0.725785 -10.8853 -3.59427 -3.46587 2.65567
127 1 0.468087 -9.13022 -1.78677 -3.30043 8.02859
128 1 2.12651 -8.80513 -3.59427 -3.49881 0.276841
129 1 1.68658 -7.04545 -1.78677 -3.49745 0.259845
130 1 1.2037 -5.38114 0.0207287 -3.54244 0.0845578
131 1 0.823268 -3.63398 1.82823 -3.54974 0.0450319
132 1 3.43781 -6.68866 -3.59427 -3.52984 0.0612018
133 1 3.02617 -4.94627 -1.78677 -3.53111 0.0348603
134 1 2.62622 -3.23911 0.0207287 -3.54152 0.00844114
135 1 2.27871 -1.50779 1.82823 -3.53466 0.0109116
136 1 4.81167 -4.58767 -3.59427 -3.53551 0.0161535
137 1 4.43509 -2.84735 -1.78677 -3.53493 0.00763007
138 1 4.05724 -1.10901 0.0207296 -3.53968 0.00298986
139 1 3.6788 0.646963 1.82823 -3.53992 0.000543171
140 1 6.21094 -2.47718 -3.59427 -3.53718 0.00529077
141 1 5.83123 -0.719991 -1.78677 -3.53903 0.00206217
142 1 5.44718 1.0372 0.0207296 -3.54082 0.0004297
143 1 5.0664 2.79805 1.82823 -3.54009 0.000141194
144 1 7.59777 -0.347942 -3.59427 -3.53922 0.00175851
145 1 7.21782 1.41646 -1.78677 -3.53971 0.000790936
146 1 6.83743 3.1797 0.0207297 -3.53963 0.00030411
147 1 6.45653 4.94712 1.82823 -3.53921 0.000446026
148 1 8.98478 1.78551 -3.59427 -3.53938 0.000769456
149 1 8.60563 3.55447 -1.78677 -3.53956 0.000473268
150 1 8.22319 5.32396 0.0207297 -3.5404 0.000893055
151 1 7.84152 7.09304 1.82823 -3.54129 0.00275061
152 1 10.3733 3.91996 -3.59427 -3.53997 0.000701955
153 1 9.99672 5.68904 -1.78677 -3.54046 0.00112611
154 1 9.62505 7.45338 0.0207297 -3.54039 0.00105213
155 1 9.2632 9.21334 1.82823 -3.53956 0.000279407
156 1 11.7749 6.04575 -3.59427 -3.54013 0.000642331
157 1 11.4105 7.80945 -1.78677 -3.53979 0.000280425
158 1 11.0512 9.57054 0.0207306 -3.53947 7.89853e-05
159 1 10.6945 11.3326 1.82823 -3.53963 6.5603e-05
160 1 13.1936 8.16348 -3.59427 -3.53973 0.000132255
161 1 12.8351 9.92693 -1.78677 -3.53975 5.5e-05
162 1 12.4776 11.6903 0.0207306 -3.54008 5.61126e-05
163 1 12.1219 13.4539 1.82823 -3.54047 0.000253892
164 1 14.6171 10.2811 -3.59427 -3.54001 7.92045e-05
165 1 14.2612 12.0449 -1.78677 -3.54021 0.00011191
166 1 13.9083 13.8072 0.0207306 -3.54027 0.000142549
167 1 13.5603 15.5679 1.82823 -3.54005 9.96184e-05
168 1 16.0451 12.3972 -3.59427 -3.54016 8.14569e-05
169 1 15.6946 14.1595 -1.78677 -3.54006 5.4186e-05
170 1 15.3476 15.9207 0.0207307 -3.53986 8.45266e-05
171 1 15.0034 17.6825 1.82823 -3.5397 0.000246691
172 1 17.4787 14.5119 -3.59427 -3.53997 5.38374e-05
173 1 17.1311 16.275 -1.78677 -3.53986 0.000117752
174 1 16.7842 18.0391 0.0207307 -3.53984 0.000198413
175 1 18.9108 16.6304 -3.59427 -3.53994 0.000110179
176 1 18.5614 18.3968 -1.78677 -3.53997 0.000125493
177 1 1.0005 -14.5082 -3.59427 -3.48868 0.45286
178 1 0.894537 -12.7669 -1.78677 -3.52794 0.435125
179 1 0.725785 -10.8853 0.0207286 -3.46588 2.65567
180 1 0.468087 -9.13022 1.82823 -3.29794 8.02859
181 1 2.67391 -12.4542 -3.59427 -3.54227 0.127897
182 1 2.43734 -10.6618 -1.78677 -3.53237 0.0952362
183 1 2.12651 -8.80513 0.0207287 -3.49882 0.27676
184 1 1.68658 -7.04545 1.82823 -3.49796 0.259845
185 1 4.15287 -10.3151 -3.59427 -3.54305 0.0257175
186 1 3.81354 -8.49732 -1.78677 -3.53899 0.0108685
187 1 3.43781 -6.68866 0.0207287 -3.52984 0.0612018
188 1 3.02617 -4.94627 1.82823 -3.53127 0.0348603
189 1 5.53892 -8.15777 -3.59427 -3.54339 0.00286195
190 1 5.18045 -6.36139 -1.78677 -3.54044 0.00625055
191 1 4.81167 -4.58767 0.0207296 -3.53551 0.0161535
192 1 4.43509 -2.84735 1.82823 -3.53493 0.00763007
193 1 6.93332 -6.02417 -3.59427 -3.54122 0.000490052
194 1 6.57754 -4.24469 -1.78677 -3.53864 0.00289414
195 1 6.21094 -2.47718 0.0207296 -3.53718 0.00529077
196 1 5.83123 -0.719991 1.82823 -3.53903 0.00206217
197 1 8.33566 -3.89691 -3.59427 -3.53977 0.000506263
198 1 7.97186 -2.11895 -1.78677 -3.53914 0.00158169
199 1 7.59777 -0.347942 0.0207297 -3.53922 0.00175851
200 1 7.21782 1.41646 1.82823 -3.53971 0.000790936
201 1 9.7293 -1.76395 -3.59427 -3.53991 0.000374712
202 1 9.35985 0.0134258 -1.78677 -3.53958 0.000784303
203 1 8.98478 1.78551 0.0207297 -3.53938 0.000769456
204 1 8.60563 3.55447 1.82823 -3.53956 0.000473268
205 1 11.1204 0.370288 -3.59427 -3.53984 0.000285347
206 1 10.7489 2.14696 -1.78677 -3.53969 0.000490071
207 1 10.3733 3.91996 0.0207306 -3.53997 0.000701955
208 1 9.99672 5.68904 1.82823 -3.54046 0.00112611
209 1 12.5135 2.50295 -3.59427 -3.54008 0.000367102
210 1 12.1436 4.277 -1.78677 -3.54018 0.000636571
211 1 11.7749 6.04575 0.0207306 -3.54013 0.000642331
212 1 11.4105 7.80945 1.82823 -3.53979 0.000280425
213 1 13.9164 4.62893 -3.59427 -3.54018 0.000358209
214 1 13.5538 6.39813 -1.78677 -3.53995 0.000272187
215 1 13.1936 8.16348 0.0207306 -3.53973 0.000132255
216 1 12.8351 9.92693 1.82823 -3.53975 5.5e-05
217 1 15.3318 6.74861 -3.59427 -3.53997 0.000121172
218 1 14.9741 8.51582 -1.78677 -3.5399 9.1914e-05
219 1 14.6171 10.2811 0.0207307 -3.54001 7.92045e-05
220 1 14.2612 12.0449 1.82823 -3.54021 0.00011191
221 1 16.7532 8.86666 -3.59427 -3.54008 7.18639e-05
222 1 16.3983 10.633 -1.78677 -3.54014 8.39453e-05
223 1 16.0451 12.3972 0.0207307 -3.54016 8.14569e-05
224 1 15.6946 14.1595 1.82823 -3.54006 5.4186e-05
225 1 18.1791 10.9834 -3.59427 -3.54016 5.43975e-05
226 1 17.8279 12.7484 -1.78677 -3.54009 4.53618e-05
227 1 17.4787 14.5119 0.0207307 -3.53997 5.38374e-05
228 1 17.1311 16.275 1.82823 -3.53986 0.000117752
229 1 19.6088 13.0997 -3.59427 -3.54006 3.78936e-05
230 1 19.2597 14.865 -1.78677 -3.53997 6.9027e-05
231 1 18.9108 16.6304 0.0207308 -3.53994 0.000110179
232 1 18.5614 18.3968 1.82823 -3.53997 0.000125493
233 1 21.0377 15.2189 -3.59427 -3.54002 6.59306e-05
234 1 20.6874 16.9863 -1.78677 -3.54002 8.02873e-05
235 1 22.4617 17.3425 -3.59427 -3.54009 5.16349e-05
236 1 1.89285 -17.9042 -3.59427 -3.45063 0.60131
237 1 1.36874 -16.1209 -1.78677 -3.44377 0.667346
238 1 1.0005 -14.5082 0.0207287 -3.48868 0.45286
239 1 0.894537 -12.7669 1.82823 -3.52794 0.435125
240 1 3.25533 -15.8581 -3.59427 -3.51739 0.0984226
241 1 2.95866 -14.1674 -1.78677 -3.50884 0.0583498
242 1 2.67391 -12.4542 0.0207287 -3.54227 0.127897
243 1 2.43734 -10.6618 1.82823 -3.53246 0.0952362
244 1 4.78648 -13.8399 -3.59427 -3.53008 0.021056
245 1 4.47695 -12.0968 -1.78677 -3.5345 0.0252026
246 1 4.15287 -10.3151 0.0207296 -3.54305 0.0257175
247 1 3.81354 -8.49732 1.82823 -3.53907 0.0108685
248 1 6.24205 -11.7357 -3.59427 -3.5372 0.00556927
249 1 5.89385 -9.95349 -1.78677 -3.54144 0.00238967
250 1 5.53892 -8.15777 0.0207296 -3.54339 0.00286195
251 1 5.18045 -6.36139 1.82823 -3.54044 0.00625055
252 1 7.6439 -9.59612 -3.59427 -3.54043 0.000184912
253 1 7.2878 -7.80999 -1.78677 -3.54172 0.000617117
254 1 6.93332 -6.02417 0.0207297 -3.54122 0.000490052
255 1 6.57754 -4.24469 1.82823 -3.53864 0.00289414
256 1 9.04532 -7.46042 -3.59427 -3.54047 5.02683e-05
257 1 8.6916 -5.67825 -1.78677 -3.54039 7.46933e-05
258 1 8.33566 -3.89691 0.0207297 -3.53977 0.000506263
259 1 7.97186 -2.11895 1.82823 -3.53914 0.00158169
260 1 10.4503 -5.32744 -3.59427 -3.54002 6.87134e-05
261 1 10.0925 -3.54517 -1.78677 -3.54006 0.00013295
262 1 9.7293 -1.76395 0.0207297 -3.53991 0.000374712
263 1 9.35985 0.0134258 1.82823 -3.53958 0.000784303
264 1 11.85 -3.19177 -3.59427 -3.5401 4.82947e-05
265 1 11.4873 -1.40971 -1.78677 -3.54007 0.000106925
266 1 11.1204 0.370288 0.0207306 -3.53984 0.000285347
267 1 10.7489 2.14696 1.82823 -3.53969 0.000490071
268 1 13.2468 -1.05583 -3.59427 -3.5401 5.41842e-05
269 1 12.8816 0.724838 -1.78677 -3.54006 0.000151286
270 1 12.5135 2.50295 0.0207306 -3.54008 0.000367102
271 1 12.1436 4.277 1.82823 -3.54018 0.000636571
272 1 14.645 1.07755 -3.59427 -3.54023 0.00014161
273 1 14.2807 2.85516 -1.78677 -3.54026 0.000277333
274 1 13.9164 4.62893 0.0207306 -3.54018 0.000358209
275 1 13.5538 6.39813 1.82823 -3.53995 0.000272187
276 1 16.0505 3.20527 -3.59427 -3.54027 0.000166277
277 1 15.6906 4.9786 -1.78677 -3.54014 0.000157913
278 1 15.3318 6.74861 0.0207307 -3.53997 0.000121172
279 1 14.9741 8.51582 1.82823 -3.5399 9.1914e-05
280 1 17.4652 5.3276 -3.59427 -3.54015 7.00803e-05
281 1 17.1089 7.09825 -1.78677 -3.54007 6.46467e-05
282 1 16.7532 8.86666 0.0207307 -3.54008 7.18639e-05
283 1 16.3983 10.633 1.82823 -3.54014 8.39453e-05
284 1 18.8856 7.44746 -3.59427 -3.54017 4.03766e-05
285 1 18.5318 9.21647 -1.78677 -3.54017 5.05099e-05
286 1 18.1791 10.9834 0.0207307 -3.54016 5.43975e-05
287 1 17.8279 12.7484 1.82823 -3.54009 4.53618e-05
288 1 20.31 9.56593 -3.59427 -3.5402 2.70978e-05
289 1 19.9589 11.3336 -1.78677 -3.54015 2.85702e-05
290 1 19.6088 13.0997 0.0207317 -3.54006 3.78936e-05
291 1 19.2597 14.865 1.82823 -3.53997 6.9027e-05
292 1 21.7373 11.6841 -3.59427 -3.54013 2.02336e-05
293 1 21.3875 13.4517 -1.78677 -3.54007 3.99385e-05
294 1 21.0377 15.2189 0.0207317 -3.54002 6.59306e-05
295 1 20.6874 16.9863 1.82823 -3.54002 8.02873e-05
296 1 23.1639 13.8044 -3.59427 -3.54009 3.72978e-05
297 1 22.8133 15.5733 -1.78677 -3.54008 5.0615e-05
298 1 22.4617 17.3425 0.0207317 -3.54009 5.16349e-05
299 1 24.5871 15.9281 -3.59427 -3.54012 3.42533e-05
300 1 24.2345 17.6987 -1.78677 -3.54014 3.1368e-05
301 1 26.0062 18.0547 -3.59427 -3.54016 1.85587e-05
302 1 1.89285 -17.9042 0.0207287 -3.45063 0.60131
303 1 1.36874 -16.1209 1.82823 -3.44377 0.667346
304 1 3.59705 -17.6436 -1.78677 -3.54043 0.0765235
305 1 3.25533 -15.8581 0.0207287 -3.51739 0.0984226
306 1 2.95866 -14.1674 1.82823 -3.50884 0.0583498
307 1 5.37826 -17.357 -3.59427 -3.54437 0.0157088
308 1 5.08096 -15.5899 -1.78677 -3.53577 0.00822119
309 1 4.78648 -13.8399 0.0207296 -3.53008 0.021056
310 1 4.47695 -12.0968 1.82823 -3.5345 0.0252026
311 1 6.87676 -15.2801 -3.59427 -3.53841 0.00495504
312 1 6.57002 -13.5105 -1.78677 -3.5363 0.00898919
313 1 6.24205 -11.7357 0.0207296 -3.5372 0.00556927
314 1 5.89385 -9.95349 1.82823 -3.54144 0.00238967
315 1 8.33397 -13.1667 -3.59427 -3.53894 0.00295524
316 1 7.99552 -11.3822 -1.78677 -3.53923 0.000967516
317 1 7.6439 -9.59612 0.0207297 -3.54043 0.000184912
318 1 7.2878 -7.80999 1.82823 -3.54172 0.000617117
319 1 9.74961 -11.03 -3.59427 -3.54021 0.000201383
320 1 9.39888 -9.24422 -1.78677 -3.5403 7.4994e-05
321 1 9.04532 -7.46042 0.0207297 -3.54047 5.02683e-05
322 1 8.6916 -5.67825 1.82823 -3.54039 7.46933e-05
323 1 11.1572 -8.89288 -3.59427 -3.54027 4.25086e-05
324 1 10.8048 -7.1098 -1.78677 -3.54006 2.38447e-05
325 1 10.4503 -5.32744 0.0207306 -3.54002 6.87134e-05
326 1 10.0925 -3.54517 1.82823 -3.54006 0.00013295
327 1 12.5647 -6.75726 -3.59427 -3.54004 4.43813e-05
328 1 12.209 -4.97452 -1.78677 -3.54001 4.66846e-05
329 1 11.85 -3.19177 0.0207306 -3.5401 4.82947e-05
330 1 11.4873 -1.40971 1.82823 -3.54007 0.000106925
331 1 13.9684 -4.62047 -3.59427 -3.54009 2.98651e-05
332 1 13.609 -2.83789 -1.78677 -3.54011 2.67982e-05
333 1 13.2468 -1.05583 0.0207306 -3.5401 5.41842e-05
334 1 12.8816 0.724838 1.82823 -3.54006 0.000151286
335 1 15.3698 -2.48391 -3.59427 -3.54016 2.8268e-05
336 1 15.0083 -0.702537 -1.78677 -3.54018 5.87218e-05
337 1 14.645 1.07755 0.0207307 -3.54023 0.00014161
338 1 14.2807 2.85516 1.82823 -3.54026 0.000277333
339 1 16.7724 -0.349943 -3.59427 -3.54026 7.35619e-05
340 1 16.4114 1.42881 -1.78677 -3.5403 0.000126186
341 1 16.0505 3.20527 0.0207307 -3.54027 0.000166277
342 1 15.6906 4.9786 1.82823 -3.54014 0.000157913
343 1 18.1803 1.77928 -3.59427 -3.5403 8.92628e-05
344 1 17.8223 3.55459 -1.78677 -3.54024 8.53698e-05
345 1 17.4652 5.3276 0.0207307 -3.54015 7.00803e-05
346 1 17.1089 7.09825 1.82823 -3.54007 6.46467e-05
347 1 19.5952 3.90389 -3.59427 -3.54023 4.46074e-05
348 1 19.24 5.67656 -1.78677 -3.54019 3.71308e-05
349 1 18.8856 7.44746 0.0207317 -3.54017 4.03766e-05
350 1 18.5318 9.21647 1.82823 -3.54017 5.05099e-05
351 1 21.0151 6.02576 -3.59427 -3.54022 2.26954e-05
352 1 20.6622 7.79663 -1.78677 -3.54022 2.42362e-05
353 1 20.31 9.56593 0.0207317 -3.5402 2.70978e-05
354 1 19.9589 11.3336 1.82823 -3.54015 2.85702e-05
355 1 22.4386 8.14612 -3.59427 -3.54023 1.17848e-05
356 1 22.0876 9.91569 -1.78677 -3.54019 1.25964e-05
357 1 21.7373 11.6841 0.0207317 -3.54013 2.02336e-05
358 1 21.3875 13.4517 1.82823 -3.54007 3.99385e-05
359 1 23.8643 10.2662 -3.59427 -3.54018 8.80963e-06
360 1 23.5141 12.0355 -1.78677 -3.54013 2.02456e-05
361 1 23.1639 13.8044 0.0207318 -3.54009 3.72978e-05
362 1 22.8133 15.5733 1.82823 -3.54008 5.0615e-05
363 1 25.2895 12.3877 -3.59427 -3.54014 1.99675e-05
364 1 24.9386 14.1578 -1.78677 -3.54013 2.98564e-05
365 1 24.5871 15.9281 0.0207318 -3.54012 3.42533e-05
366 1 24.2345 17.6987 1.82823 -3.54014 3.1368e-05
367 1 26.712 14.5118 -3.59427 -3.54015 2.14361e-05
368 1 26.3596 16.2831 -1.78677 -3.54016 2.15894e-05
369 1 26.0062 18.0547 0.0207318 -3.54016 1.85587e-05
370 1 28.1312 16.6383 -3.59427 -3.54018 1.3024e-05
371 1 27.7772 18.4107 -1.78677 -3.54018 1.07252e-05
372 1 3.59705 -17.6436 1.82823 -3.54043 0.0765235
373 1 5.37826 -17.357 0.0207296 -3.54437 0.0157088
374 1 5.08096 -15.5899 1.82823 -3.53577 0.00822119
375 1 7.18019 -17.0463 -1.78677 -3.54045 0.00296055
376 1 6.87676 -15.2801 0.0207297 -3.53841 0.00495504
377 1 6.57002 -13.5105 1.82823 -3.5363 0.00898919
378 1 8.97598 -16.7126 -3.59427 -3.53911 0.00205618
379 1 8.65819 -14.9445 -1.78677 -3.53892 0.00384821
380 1 8.33397 -13.1667 0.0207297 -3.53894 0.00295524
381 1 7.99552 -11.3822 1.82823 -3.53923 0.000967516
382 1 10.431 -14.5942 -3.59427 -3.53951 0.00182985
383 1 10.0941 -12.8149 -1.78677 -3.53999 0.000945342
384 1 9.74961 -11.03 0.0207297 -3.54021 0.000201383
385 1 9.39888 -9.24422 1.82823 -3.5403 7.4994e-05
386 1 11.8557 -12.4591 -3.59427 -3.54031 0.000352489
387 1 11.5077 -10.6766 -1.78677 -3.54043 0.000131974
388 1 11.1572 -8.89288 0.0207306 -3.54027 4.25086e-05
389 1 10.8048 -7.1098 1.82823 -3.54006 2.38447e-05
390 1 13.2693 -10.3214 -3.59427 -3.54036 0.000107283
391 1 12.9178 -8.53971 -1.78677 -3.54022 6.01315e-05
392 1 12.5647 -6.75726 0.0207306 -3.54004 4.43813e-05
393 1 12.209 -4.97452 1.82823 -3.54001 4.66846e-05
394 1 14.6799 -8.18437 -3.59427 -3.54019 6.59223e-05
395 1 14.3253 -6.40286 -1.78677 -3.54012 4.6367e-05
396 1 13.9684 -4.62047 0.0207306 -3.54009 2.98651e-05
397 1 13.609 -2.83789 1.82823 -3.54011 2.67982e-05
398 1 16.0871 -6.0471 -3.59427 -3.54018 3.89807e-05
399 1 15.7294 -4.26568 -1.78677 -3.54017 2.64803e-05
400 1 15.3698 -2.48391 0.0207307 -3.54016 2.8268e-05
401 1 15.0083 -0.702537 1.82823 -3.54018 5.87218e-05
402 1 17.4922 -3.91048 -3.59427 -3.54022 2.97802e-05
403 1 17.1328 -2.13001 -1.78677 -3.54023 4.06516e-05
404 1 16.7724 -0.349943 0.0207307 -3.54026 7.35619e-05
405 1 16.4114 1.42881 1.82823 -3.5403 0.000126186
406 1 18.8982 -1.77634 -3.59427 -3.54029 5.05059e-05
407 1 18.5391 0.00208352 -1.78677 -3.54031 7.29854e-05
408 1 18.1803 1.77928 0.0207307 -3.5403 8.92628e-05
409 1 17.8223 3.55459 1.82823 -3.54024 8.53698e-05
410 1 20.3082 0.35383 -3.59427 -3.54031 5.81055e-05
411 1 19.9512 2.12957 -1.78677 -3.54028 5.5466e-05
412 1 19.5952 3.90389 0.0207317 -3.54023 4.46074e-05
413 1 19.24 5.67656 1.82823 -3.54019 3.71308e-05
414 1 21.7236 2.48004 -3.59427 -3.54027 3.41865e-05
415 1 21.3689 4.25351 -1.78677 -3.54024 2.63262e-05
416 1 21.0151 6.02576 0.0207317 -3.54022 2.26954e-05
417 1 20.6622 7.79663 1.82823 -3.54022 2.42362e-05
418 1 23.1433 4.60358 -3.59427 -3.54025 1.65951e-05
419 1 22.7905 6.37538 -1.78677 -3.54024 1.33042e-05
420 1 22.4386 8.14612 0.0207317 -3.54023 1.17848e-05
421 1 22.0876 9.91569 1.82823 -3.54019 1.25964e-05
422 1 24.5661 6.72559 -3.59427 -3.54024 6.60962e-06
423 1 24.2148 8.49626 -1.78677 -3.54022 5.29059e-06
424 1 23.8643 10.2662 0.0207318 -3.54018 8.80963e-06
425 1 23.5141 12.0355 1.82823 -3.54013 2.02456e-05
426 1 25.9905 8.84724 -3.59427 -3.5402 4.24227e-06
427 1 25.64 10.6176 -1.78677 -3.54017 9.95466e-06
428 1 25.2895 12.3877 0.0207318 -3.54014 1.99675e-05
429 1 24.9386 14.1578 1.82823 -3.54013 2.98564e-05
430 1 27.4146 10.9699 -3.59427 -3.54017 1.11377e-05
431 1 27.0636 12.7408 -1.78677 -3.54016 1.74264e-05
432 1 26.712 14.5118 0.0207319 -3.54015 2.14361e-05
433 1 26.3596 16.2831 1.82823 -3.54016 2.15894e-05
434 1 28.8367 13.0945 -3.59427 -3.54018 1.36183e-05
435 1 28.4843 14.8663 -1.78677 -3.54018 1.42734e-05
436 1 28.1312 16.6383 0.0207319 -3.54018 1.3024e-05
437 1 27.7772 18.4107 1.82823 -3.54018 1.07252e-05
438 1 30.256 15.2211 -3.59427 -3.54019 8.97525e-06
439 1 29.9023 16.9937 -1.78677 -3.54019 7.65863e-06
440 1 31.6731 17.3491 -3.59427 -3.5402 4.52327e-06
441 1 7.18019 -17.0463 1.82823 -3.54045 0.00296055
442 1 8.97598 -16.7126 0.0207297 -3.53911 0.00205618
443 1 8.65819 -14.9445 1.82823 -3.53892 0.00384821
444 1 11.0924 -18.1285 -3.59427 -3.53933 0.000605651
445 1 10.7622 -16.3651 -1.78677 -3.53913 0.00159105
446 1 10.431 -14.5942 0.0207297 -3.53951 0.00182985
447 1 10.0941 -12.8149 1.82823 -3.53999 0.000945342
448 1 12.5409 -16.0098 -3.59427 -3.53954 0.000869444
449 1 12.2002 -14.2375 -1.78677 -3.53993 0.00069531
450 1 11.8557 -12.4591 0.0207306 -3.54031 0.000352489
451 1 11.5077 -10.6766 1.82823 -3.54043 0.000131974
452 1 13.9686 -13.8782 -3.59427 -3.54014 0.000256619
453 1 13.6197 -12.1013 -1.78677 -3.54034 0.000162844
454 1 13.2693 -10.3214 0.0207306 -3.54036 0.000107283
455 1 12.9178 -8.53971 1.82823 -3.54022 6.01315e-05
456 1 15.3856 -11.7425 -3.59427 -3.54028 8.65053e-05
457 1 15.0332 -9.96441 -1.78677 -3.54027 8.00027e-05
458 1 14.6799 -8.18437 0.0207307 -3.54019 6.59223e-05
459 1 14.3253 -6.40286 1.82823 -3.54012 4.6367e-05
460 1 16.7983 -9.6062 -3.59427 -3.54022 5.40122e-05
461 1 16.4433 -7.82745 -1.78677 -3.5402 5.15821e-05
462 1 16.0871 -6.0471 0.0207307 -3.54018 3.89807e-05
463 1 15.7294 -4.26568 1.82823 -3.54017 2.64803e-05
464 1 18.2079 -7.46969 -3.59427 -3.54021 3.35559e-05
465 1 17.8506 -5.69058 -1.78677 -3.54022 3.08298e-05
466 1 17.4922 -3.91048 0.0207307 -3.54022 2.97802e-05
467 1 17.1328 -2.13001 1.82823 -3.54023 4.06516e-05
468 1 19.6157 -5.33385 -3.59427 -3.54025 2.58129e-05
469 1 19.2572 -3.55521 -1.78677 -3.54027 3.44558e-05
470 1 18.8982 -1.77634 0.0207317 -3.54029 5.05059e-05
471 1 18.5391 0.00208352 1.82823 -3.54031 7.29854e-05
472 1 21.0242 -3.20014 -3.59427 -3.54029 3.61899e-05
473 1 20.666 -1.42291 -1.78677 -3.54031 4.96235e-05
474 1 20.3082 0.35383 0.0207317 -3.54031 5.81055e-05
475 1 19.9512 2.12957 1.82823 -3.54028 5.5466e-05
476 1 22.4358 -1.06969 -3.59427 -3.5403 4.04845e-05
477 1 22.0792 0.705564 -1.78677 -3.54029 4.0748e-05
478 1 21.7236 2.48004 0.0207317 -3.54027 3.41865e-05
479 1 21.3689 4.25351 1.82823 -3.54024 2.63262e-05
480 1 23.8515 1.05744 -3.59427 -3.54027 2.70542e-05
481 1 23.4969 2.83088 -1.78677 -3.54026 2.17653e-05
482 1 23.1433 4.60358 0.0207318 -3.54025 1.65951e-05
483 1 22.7905 6.37538 1.82823 -3.54024 1.33042e-05
484 1 25.271 3.18213 -3.59427 -3.54025 1.36078e-05
485 1 24.9181 4.95418 -1.78677 -3.54025 9.80285e-06
486 1 24.5661 6.72559 0.0207318 -3.54024 6.60962e-06
487 1 24.2148 8.49626 1.82823 -3.54022 5.29059e-06
488 1 26.6931 5.30538 -3.59427 -3.54024 5.08705e-06
489 1 26.3415 7.07652 -1.78677 -3.54023 3.294e-06
490 1 25.9905 8.84724 0.0207318 -3.5402 4.24227e-06
491 1 25.64 10.6176 1.82823 -3.54017 9.95466e-06
492 1 28.1166 7.42824 -3.59427 -3.54021 2.76835e-06
493 1 27.7655 9.19911 -1.78677 -3.54019 5.56798e-06
494 1 27.4146 10.9699 0.0207319 -3.54017 1.11377e-05
495 1 27.0636 12.7408 1.82823 -3.54016 1.74264e-05
496 1 29.5399 9.55181 -3.59427 -3.54019 6.84895e-06
497 1 29.1884 11.3231 -1.78677 -3.54018 1.08128e-05
498 1 28.8367 13.0945 0.0207319 -3.54018 1.36183e-05
499 1 28.4843 14.8663 1.82823 -3.54018 1.42734e-05
500 1 30.9615 11.6769 -3.59427 -3.54019 9.18465e-06
501 1 30.6091 13.4488 -1.78677 -3.54019 9.66321e-06
502 1 30.256 15.2211 0.0207319 -3.54019 8.97525e-06
503 1 29.9023 16.9937 1.82823 -3.54019 7.65863e-06
504 1 32.3809 13.8035 -3.59427 -3.54019 6.23363e-06
505 1 32.0273 15.5761 -1.78677 -3.5402 5.47976e-06
506 1 31.6731 17.3491 0.020732 -3.5402 4.52327e-06
507 1 33.7984 15.9313 -3.59427 -3.54021 3.55136e-06
508 1 33.4438 17.7044 -1.78677 -3.54022 2.73747e-06
509 1 35.2144 18.0597 -3.59427 -3.54023 1.51345e-06
510 1 11.0924 -18.1285 0.0207306 -3.53933 0.000605651
511 1 10.7622 -16.3651 1.82823 -3.53913 0.00159105
512 1 12.8792 -17.776 -1.78677 -3.53944 0.000602428
513 1 12.5409 -16.0098 0.0207306 -3.53954 0.000869444
514 1 12.2002 -14.2375 1.82823 -3.53993 0.00069531
515 1 14.66 -17.4192 -3.59427 -3.5397 0.000404005
516 1 14.3154 -15.651 -1.78677 -3.53988 0.000385151
517 1 13.9686 -13.8782 0.0207306 -3.54014 0.000256619
518 1 13.6197 -12.1013 1.82823 -3.54034 0.000162844
519 1 16.0878 -15.2909 -3.59427 -3.54007 0.000158835
520 1 15.7373 -13.5181 -1.78677 -3.54021 0.000105562
521 1 15.3856 -11.7425 0.0207307 -3.54028 8.65053e-05
522 1 15.0332 -9.96441 1.82823 -3.54027 8.00027e-05
523 1 17.5063 -13.1579 -3.59427 -3.54021 5.00754e-05
524 1 17.1526 -11.3831 -1.78677 -3.54023 4.9404e-05
525 1 16.7983 -9.6062 0.0207307 -3.54022 5.40122e-05
526 1 16.4433 -7.82745 1.82823 -3.5402 5.15821e-05
527 1 18.9202 -11.0234 -3.59427 -3.54021 2.79622e-05
528 1 18.5644 -9.24738 -1.78677 -3.54021 3.22373e-05
529 1 18.2079 -7.46969 0.0207307 -3.54021 3.35559e-05
530 1 17.8506 -5.69058 1.82823 -3.54022 3.08298e-05
531 1 20.3313 -8.88849 -3.59427 -3.54021 1.72528e-05
532 1 19.9738 -7.11173 -1.78677 -3.54023 2.09042e-05
533 1 19.6157 -5.33385 0.0207317 -3.54025 2.58129e-05
534 1 19.2572 -3.55521 1.82823 -3.54027 3.44558e-05
535 1 21.7409 -6.754 -3.59427 -3.54024 1.47815e-05
536 1 21.3826 -4.97731 -1.78677 -3.54026 2.38319e-05
537 1 21.0242 -3.20014 0.0207317 -3.54029 3.61899e-05
538 1 20.666 -1.42291 1.82823 -3.54031 4.96235e-05
539 1 23.1511 -4.62119 -3.59427 -3.54027 2.24887e-05
540 1 22.7932 -2.84539 -1.78677 -3.54029 3.30449e-05
541 1 22.4358 -1.06969 0.0207317 -3.5403 4.04845e-05
542 1 22.0792 0.705564 1.82823 -3.54029 4.0748e-05
543 1 24.5637 -2.49099 -3.59427 -3.54028 2.66638e-05
544 1 24.2072 -0.716573 -1.78677 -3.54028 2.93448e-05
545 1 23.8515 1.05744 0.0207318 -3.54027 2.70542e-05
546 1 23.4969 2.83088 1.82823 -3.54026 2.17653e-05
547 1 25.9797 -0.363506 -3.59427 -3.54026 1.98027e-05
548 1 25.6249 1.40953 -1.78677 -3.54026 1.73461e-05
549 1 25.271 3.18213 0.0207318 -3.54025 1.36078e-05
550 1 24.9181 4.95418 1.82823 -3.54025 9.80285e-06
551 1 27.3989 1.76186 -3.59427 -3.54025 1.04364e-05
552 1 27.0456 3.53381 -1.78677 -3.54025 7.75323e-06
553 1 26.6931 5.30538 0.0207319 -3.54024 5.08705e-06
554 1 26.3415 7.07652 1.82823 -3.54023 3.294e-06
555 1 28.8203 3.88594 -3.59427 -3.54023 3.919e-06
556 1 28.4681 5.6572 -1.78677 -3.54023 2.64949e-06
557 1 28.1166 7.42824 0.0207319 -3.54021 2.76835e-06
558 1 27.7655 9.19911 1.82823 -3.54019 5.56798e-06
559 1 30.2429 6.00964 -3.59427 -3.54021 1.95877e-06
560 1 29.8913 7.78071 -1.78677 -3.5402 3.51256e-06
561 1 29.5399 9.55181 0.0207319 -3.54019 6.84895e-06
562 1 29.1884 11.3231 1.82823 -3.54018 1.08128e-05
563 1 31.6654 8.13384 -3.59427 -3.5402 4.38287e-06
564 1 31.3136 9.90521 -1.78677 -3.54019 7.22012e-06
565 1 30.9615 11.6769 0.0207319 -3.54019 9.18465e-06
566 1 30.6091 13.4488 1.82823 -3.54019 9.66321e-06
567 1 33.0867 10.2592 -3.59427 -3.5402 6.58304e-06
568 1 32.734 12.0312 -1.78677 -3.5402 6.77128e-06
569 1 32.3809 13.8035 0.020732 -3.54019 6.23363e-06
570 1 32.0273 15.5761 1.82823 -3.5402 5.47976e-06
571 1 34.5061 12.3858 -3.59427 -3.5402 4.15027e-06
572 1 34.1525 14.1584 -1.78677 -3.5402 3.81009e-06
573 1 33.7984 15.9313 0.020732 -3.54021 3.55136e-06
574 1 33.4438 17.7044 1.82823 -3.54022 2.73747e-06
575 1 35.9239 14.5134 -3.59427 -3.54021 2.79411e-06
576 1 35.5694 16.2864 -1.78677 -3.54022 2.70928e-06
577 1 35.2144 18.0597 0.020732 -3.54023 1.51345e-06
578 1 37.3404 16.6416 -3.59427 -3.54024 2.08269e-06