ITEM: TIMESTEP
0
ITEM: NUMBER OF ATOMS
2504
ITEM: BOX BOUNDS xy xz yz mm pp pp
-5.5498871899999997e+01 5.5498871899999997e+01 0.0000000000000000e+00
-1.8432957300000002e+01 1.8432957300000002e+01 0.0000000000000000e+00
-3.6150000000000002e+00 3.6150000000000002e+00 0.0000000000000000e+00
ITEM: ATOMS id type x y z c_eng c_csym
1 1 0.633529 16.7524 -3.60434 -3.44116 3.58898
2 1 0.289567 -18.2984 -1.79684 -3.28347 9.08417
3 1 0.995453 13.0387 -3.60434 -3.49586 0.335022
4 1 0.862431 14.7928 -1.79684 -3.50386 0.586165
5 1 0.633529 16.7524 0.0106589 -3.44116 3.58898
6 1 0.289567 -18.2984 1.81816 -3.28347 9.08417
7 1 2.58592 15.1743 -3.60434 -3.54114 0.119812
8 1 2.28793 17.01 -1.79684 -3.52092 0.0805872
9 1 3.97739 17.3738 -3.60434 -3.54505 0.0295112
10 1 0.541121 7.42971 -3.60434 -3.51292 1.38508
11 1 0.194833 9.19538 -1.79684 -3.34004 3.85338
12 1 1.8303 9.61826 -3.60434 -3.49238 0.296728
13 1 1.3444 11.38 -1.79684 -3.49066 0.368066
14 1 0.995453 13.0387 0.0106591 -3.49586 0.335022
15 1 0.862431 14.7928 1.81816 -3.50386 0.586165
16 1 3.21238 11.7019 -3.60434 -3.52337 0.0399632
17 1 2.90594 13.4103 -1.79684 -3.51388 0.0701937
18 1 2.58592 15.1743 0.0106592 -3.54114 0.119812
19 1 2.28793 17.01 1.81816 -3.52092 0.0805872
20 1 4.69791 13.7875 -3.60434 -3.53315 0.0134865
21 1 4.34615 15.5591 -1.79684 -3.53805 0.0132415
22 1 3.97739 17.3738 0.0106593 -3.54505 0.0295112
23 1 6.10083 15.9356 -3.60434 -3.54096 0.00260854
24 1 5.73388 17.7197 -1.79684 -3.54487 0.0131892
25 1 7.52054 18.0608 -3.60434 -3.54138 0.00275543
26 1 1.08491 3.78538 -3.60434 -3.52293 0.176499
27 1 0.843969 5.55789 -1.79684 -3.53646 0.145243
28 1 0.541121 7.42971 0.0106589 -3.51292 1.38504
29 1 0.194833 9.19538 1.81816 -3.34057 3.85338
30 1 2.58311 5.94396 -3.60434 -3.54182 0.0448918
31 1 2.24975 7.75103 -1.79684 -3.52403 0.0412781
32 1 1.8303 9.61826 0.0106592 -3.49238 0.296728
33 1 1.3444 11.38 1.81816 -3.49066 0.368066
34 1 3.9566 8.13855 -3.60434 -3.54425 0.0168133
35 1 3.56796 9.93961 -1.79684 -3.54292 0.0478318
36 1 3.21238 11.7019 0.0106593 -3.52337 0.0399632
37 1 2.90594 13.4103 1.81816 -3.51388 0.0701937
38 1 5.35979 10.2701 -3.60434 -3.54221 0.00615651
39 1 5.03153 12.0274 -1.79684 -3.53457 0.00710233
40 1 4.69791 13.7875 0.0106598 -3.53315 0.0134865
41 1 4.34615 15.5591 1.81816 -3.53805 0.0132415
42 1 6.81568 12.3797 -3.60434 -3.53818 0.00288879
43 1 6.46639 14.1532 -1.79684 -3.53815 0.00181278
44 1 6.10083 15.9356 0.0106599 -3.54096 0.00260854
45 1 5.73388 17.7197 1.81816 -3.54487 0.0131892
46 1 8.23209 14.5148 -3.60434 -3.54069 0.000414149
47 1 7.87176 16.2908 -1.79684 -3.5415 0.00241928
48 1 7.52054 18.0608 0.01066 -3.54138 0.00275543
49 1 9.65415 16.6392 -3.60434 -3.54078 0.000755593
50 1 9.31125 18.4042 -1.79684 -3.53974 0.000341164
51 1 0.553716 -1.80048 -3.60434 -3.51907 1.19346
52 1 0.214237 -0.0479379 -1.79684 -3.3609 3.21313
53 1 1.90807 0.345823 -3.60434 -3.51062 0.197583
54 1 1.46334 2.09808 -1.79684 -3.5052 0.207592
55 1 1.08491 3.78538 0.0106591 -3.52293 0.176456
56 1 0.843969 5.55789 1.81816 -3.53597 0.145243
57 1 3.2853 2.45627 -3.60434 -3.529 0.0185879
58 1 2.93775 4.18495 -1.79684 -3.5274 0.0240067
59 1 2.58311 5.94396 0.0106592 -3.54182 0.0448918
60 1 2.24975 7.75103 1.81816 -3.52411 0.0412781
61 1 4.71727 4.57113 -3.60434 -3.53538 0.00563671
62 1 4.34561 6.33947 -1.79684 -3.53796 0.00596192
63 1 3.9566 8.13855 0.0106593 -3.54425 0.0168133
64 1 3.56796 9.93961 1.81816 -3.54292 0.0478318
65 1 6.10065 6.72414 -3.60434 -3.54082 0.00229438
66 1 5.71875 8.501 -1.79684 -3.54379 0.00962203
67 1 5.35979 10.2701 0.0106599 -3.54221 0.00615651
68 1 5.03153 12.0274 1.81816 -3.53457 0.00710233
69 1 7.50518 8.85446 -3.60434 -3.54082 0.00187348
70 1 7.15672 10.615 -1.79684 -3.53909 0.000943562
71 1 6.81568 12.3797 0.01066 -3.53818 0.00288879
72 1 6.46639 14.1532 1.81816 -3.53815 0.00181278
73 1 8.94195 10.971 -3.60434 -3.5391 0.000574893
74 1 8.58987 12.7396 -1.79684 -3.53965 0.000523499
75 1 8.23209 14.5148 0.01066 -3.54069 0.000414149
76 1 7.87176 16.2908 1.81816 -3.5415 0.00241928
77 1 10.3635 13.0991 -3.60434 -3.54045 9.19516e-05
78 1 10.0064 14.8702 -1.79684 -3.54104 0.000599639
79 1 9.65415 16.6392 0.0106601 -3.54078 0.000755593
80 1 9.31125 18.4042 1.81816 -3.53974 0.000341164
81 1 11.7871 15.2226 -3.60434 -3.54059 0.000231844
82 1 11.4392 16.9883 -1.79684 -3.54011 0.000110975
83 1 13.2217 17.3405 -3.60434 -3.5399 9.52761e-05
84 1 1.11843 -5.40406 -3.60434 -3.51618 0.21239
85 1 0.859677 -3.65784 -1.79684 -3.54138 0.150461
86 1 0.553716 -1.80048 0.0106589 -3.51907 1.19342
87 1 0.214237 -0.0479379 1.81816 -3.36116 3.21313
88 1 2.62107 -3.25698 -3.60434 -3.54395 0.0386021
89 1 2.28916 -1.48024 -1.79684 -3.53227 0.028319
90 1 1.90807 0.345823 0.0106592 -3.51062 0.197562
91 1 1.46334 2.09808 1.81816 -3.50565 0.207592
92 1 4.02774 -1.0917 -3.60434 -3.54469 0.00606789
93 1 3.65169 0.690046 -1.79684 -3.54179 0.0115266
94 1 3.2853 2.45627 0.0106593 -3.529 0.0185879
95 1 2.93775 4.18495 1.81816 -3.52747 0.0240067
96 1 5.4275 1.04628 -3.60434 -3.54201 0.00120617
97 1 5.07545 2.8077 -1.79684 -3.53733 0.0024491
98 1 4.71727 4.57113 0.0106598 -3.53538 0.00563671
99 1 4.34561 6.33947 1.81816 -3.53796 0.00596192
100 1 6.84767 3.17341 -3.60434 -3.53921 0.00106008
101 1 6.48083 4.9458 -1.79684 -3.5388 0.000916545
102 1 6.10065 6.72414 0.0106599 -3.54082 0.00229438
103 1 5.71875 8.501 1.81816 -3.54379 0.00962203
104 1 8.24335 5.31449 -3.60434 -3.54067 0.000558882
105 1 7.87012 7.08782 -1.79684 -3.54128 0.00225385
106 1 7.50518 8.85446 0.01066 -3.54082 0.00187348
107 1 7.15672 10.615 1.81816 -3.53909 0.000943562
108 1 9.64947 7.44324 -3.60434 -3.54056 0.000668143
109 1 9.293 9.20733 -1.79684 -3.53956 0.000169207
110 1 8.94195 10.971 0.0106601 -3.5391 0.000574893
111 1 8.58987 12.7396 1.81816 -3.53965 0.000523499
112 1 11.0751 9.56258 -3.60434 -3.53959 8.64949e-05
113 1 10.7203 11.3294 -1.79684 -3.53974 0.000101076
114 1 10.3635 13.0991 0.0106601 -3.54045 9.19516e-05
115 1 10.0064 14.8702 1.81816 -3.54104 0.000599639
116 1 12.4969 11.6866 -3.60434 -3.5402 1.88852e-05
117 1 12.1406 13.4551 -1.79684 -3.54056 0.000148122
118 1 11.7871 15.2226 0.0106607 -3.54059 0.000231844
119 1 11.4392 16.9883 1.81816 -3.54011 0.000110975
120 1 13.9202 13.8088 -3.60434 -3.54036 7.20679e-05
121 1 13.5692 15.5749 -1.79684 -3.54018 4.08944e-05
122 1 13.2217 17.3405 0.0106608 -3.5399 9.52761e-05
123 1 15.3498 15.9282 -3.60434 -3.54003 3.33329e-05
124 1 15.0009 17.695 -1.79684 -3.53994 9.30838e-05
125 1 16.7773 18.0508 -3.60434 -3.54004 5.78764e-05
126 1 0.683775 -10.9137 -3.60434 -3.45708 3.13694
127 1 0.37856 -9.13322 -1.79684 -3.30016 8.47922
128 1 2.01672 -8.78868 -3.60434 -3.48506 0.426953
129 1 1.54694 -7.0344 -1.79684 -3.47212 0.421323
130 1 1.11843 -5.40406 0.0106591 -3.51619 0.212347
131 1 0.859677 -3.65784 1.81816 -3.54093 0.150461
132 1 3.35921 -6.70056 -3.60434 -3.52547 0.0610991
133 1 2.99456 -4.98189 -1.79684 -3.52231 0.0333401
134 1 2.62107 -3.25698 0.0106592 -3.54395 0.0386021
135 1 2.28916 -1.48024 1.81816 -3.53238 0.028319
136 1 4.78023 -4.61115 -3.60434 -3.53398 0.0119665
137 1 4.40806 -2.85967 -1.79684 -3.53716 0.00421769
138 1 4.02774 -1.0917 0.0106597 -3.54469 0.00606789
139 1 3.65169 0.690046 1.81816 -3.54182 0.0115266
140 1 6.17357 -2.48392 -3.60434 -3.53891 0.002067
141 1 5.79555 -0.717527 -1.79684 -3.54183 0.00158075
142 1 5.4275 1.04628 0.0106599 -3.54201 0.00120617
143 1 5.07545 2.8077 1.81816 -3.53733 0.0024491
144 1 7.57059 -0.356244 -3.60434 -3.54003 0.000708032
145 1 7.20809 1.40734 -1.79684 -3.53958 0.000314597
146 1 6.84767 3.17341 0.01066 -3.53921 0.00106008
147 1 6.48083 4.9458 1.81816 -3.5388 0.000916545
148 1 8.98065 1.76939 -3.60434 -3.53932 0.00036121
149 1 8.61469 3.5403 -1.79684 -3.53979 0.000218785
150 1 8.24335 5.31449 0.01066 -3.54067 0.000558882
151 1 7.87012 7.08782 1.81816 -3.54128 0.00225385
152 1 10.3817 3.90252 -3.60434 -3.54028 0.000225489
153 1 10.0137 5.67471 -1.79684 -3.5408 0.000668854
154 1 9.64947 7.44324 0.0106601 -3.54056 0.000668143
155 1 9.293 9.20733 1.81816 -3.53956 0.000169207
156 1 11.7892 6.02964 -3.60434 -3.54039 0.000293148
157 1 11.4305 7.79691 -1.79684 -3.53999 9.69085e-05
158 1 11.0751 9.56258 0.0106606 -3.53959 8.64949e-05
159 1 10.7203 11.3294 1.81816 -3.53974 0.000101076
160 1 13.2092 8.15067 -3.60434 -3.5399 3.40958e-05
161 1 12.8533 9.91834 -1.79684 -3.53991 2.35545e-05
162 1 12.4969 11.6866 0.0106608 -3.5402 1.88852e-05
163 1 12.1406 13.4551 1.81816 -3.54056 0.000148122
164 1 14.6299 10.2731 -3.60434 -3.54015 1.78991e-05
165 1 14.2743 12.0414 -1.79684 -3.54032 4.75332e-05
166 1 13.9202 13.8088 0.0106609 -3.54036 7.20679e-05
167 1 13.5692 15.5749 1.81816 -3.54018 4.08944e-05
168 1 16.0524 12.3947 -3.60434 -3.54026 3.12447e-05
169 1 15.7 14.1618 -1.79684 -3.54018 1.96429e-05
170 1 15.3498 15.9282 0.0106611 -3.54003 3.33329e-05
171 1 15.0009 17.695 1.81816 -3.53994 9.30838e-05
172 1 17.4787 14.5151 -3.60434 -3.5401 1.73788e-05
173 1 17.1279 16.2826 -1.79684 -3.54003 4.0251e-05
174 1 16.7773 18.0508 0.0106612 -3.54004 5.78764e-05
175 1 18.9039 16.6376 -3.60434 -3.54008 3.17005e-05
176 1 18.552 18.407 -1.79684 -3.54012 3.0673e-05
177 1 1.01392 -14.5746 -3.60434 -3.48318 0.46764
178 1 0.896329 -12.8313 -1.79684 -3.51759 0.504194
179 1 0.683775 -10.9137 0.0106589 -3.45708 3.13694
180 1 0.37856 -9.13322 1.81816 -3.29975 8.47922
181 1 2.6456 -12.4727 -3.60434 -3.54309 0.124049
182 1 2.37074 -10.6646 -1.79684 -3.52918 0.0783556
183 1 2.01672 -8.78868 0.0106592 -3.48506 0.426932
184 1 1.54694 -7.0344 1.81816 -3.47264 0.421323
185 1 4.07692 -10.3028 -3.60434 -3.54586 0.0186789
186 1 3.72098 -8.4893 -1.79684 -3.54202 0.0208438
187 1 3.35921 -6.70056 0.0106593 -3.52547 0.0610991
188 1 2.99456 -4.98189 1.81816 -3.52238 0.0333401
189 1 5.47468 -8.15914 -3.60434 -3.54402 0.00315974
190 1 5.13411 -6.37944 -1.79684 -3.53824 0.00426411
191 1 4.78023 -4.61115 0.0106598 -3.53398 0.0119665
192 1 4.40806 -2.85967 1.81816 -3.53716 0.00421769
193 1 6.89699 -6.03658 -3.60434 -3.54005 0.000693099
194 1 6.54307 -4.25799 -1.79684 -3.5385 0.0020611
195 1 6.17357 -2.48392 0.0106599 -3.53891 0.002067
196 1 5.79555 -0.717527 1.81816 -3.54183 0.00158075
197 1 8.30119 -3.90425 -3.60434 -3.54032 0.000210044
198 1 7.93715 -2.12635 -1.79684 -3.54022 0.000857477
199 1 7.57059 -0.356244 0.01066 -3.54003 0.000708032
200 1 7.20809 1.40734 1.81816 -3.53958 0.000314597
201 1 9.70308 -1.77367 -3.60434 -3.54036 0.000177861
202 1 9.34271 -0.000625657 -1.79684 -3.53962 0.000280019
203 1 8.98065 1.76939 0.0106601 -3.53932 0.00036121
204 1 8.61469 3.5403 1.81816 -3.53979 0.000218785
205 1 11.1107 0.354441 -3.60434 -3.5398 0.000106811
206 1 10.7482 2.12881 -1.79684 -3.53978 0.000144265
207 1 10.3817 3.90252 0.0106606 -3.54028 0.000225489
208 1 10.0137 5.67471 1.81816 -3.5408 0.000668854
209 1 12.5153 2.48506 -3.60434 -3.5402 0.000107527
210 1 12.1517 4.25896 -1.79684 -3.5404 0.000268756
211 1 11.7892 6.02964 0.0106607 -3.54039 0.000293148
212 1 11.4305 7.79691 1.81816 -3.53999 9.69085e-05
213 1 13.9243 4.61194 -3.60434 -3.54031 0.000141271
214 1 13.5659 6.38239 -1.79684 -3.54011 8.31374e-05
215 1 13.2092 8.15067 0.0106608 -3.5399 3.40958e-05
216 1 12.8533 9.91834 1.81816 -3.53991 2.35545e-05
217 1 15.3416 6.73456 -3.60434 -3.54006 2.82061e-05
218 1 14.9858 8.50415 -1.79684 -3.54002 1.9741e-05
219 1 14.6299 10.2731 0.010661 -3.54015 1.78991e-05
220 1 14.2743 12.0414 1.81816 -3.54032 4.75332e-05
221 1 16.7614 8.85696 -3.60434 -3.54016 1.64338e-05
222 1 16.4065 10.6264 -1.79684 -3.54023 2.57429e-05
223 1 16.0524 12.3947 0.0106611 -3.54026 3.12447e-05
224 1 15.7 14.1618 1.81816 -3.54018 1.96429e-05
225 1 18.1831 10.9788 -3.60434 -3.54023 1.71409e-05
226 1 17.8303 12.7474 -1.79684 -3.54018 1.37886e-05
227 1 17.4787 14.5151 0.0106613 -3.5401 1.73788e-05
228 1 17.1279 16.2826 1.81816 -3.54003 4.0251e-05
229 1 19.6071 13.1001 -3.60434 -3.54014 1.09286e-05
230 1 19.2555 14.8688 -1.79684 -3.54009 2.12492e-05
231 1 18.9039 16.6376 0.0106615 -3.54008 3.17005e-05
232 1 18.552 18.407 1.81816 -3.54012 3.0673e-05
233 1 21.0307 15.223 -3.60434 -3.54012 1.85532e-05
234 1 20.6784 16.9929 -1.79684 -3.54013 2.06306e-05
235 1 22.4517 17.3482 -3.60434 -3.54016 1.28111e-05
236 1 1.89655 -17.9448 -3.60434 -3.45533 0.646123
237 1 1.38349 -16.1783 -1.79684 -3.43732 0.700291
238 1 1.01392 -14.5746 0.0106591 -3.48318 0.46764
239 1 0.896329 -12.8313 1.81816 -3.51759 0.504194
240 1 3.26537 -15.8928 -3.60434 -3.51762 0.0832471
241 1 2.95985 -14.2008 -1.79684 -3.50884 0.0746865
242 1 2.6456 -12.4727 0.0106592 -3.54309 0.124049
243 1 2.37074 -10.6646 1.81816 -3.52921 0.0783556
244 1 4.76727 -13.846 -3.60434 -3.53118 0.0193132
245 1 4.42959 -12.0931 -1.79684 -3.53672 0.0145398
246 1 4.07692 -10.3028 0.0106597 -3.54586 0.0186789
247 1 3.72098 -8.4893 1.81816 -3.54204 0.0208438
248 1 6.18957 -11.722 -3.60434 -3.5391 0.00124939
249 1 5.82775 -9.94276 -1.79684 -3.54337 0.00265246
250 1 5.47468 -8.15914 0.0106599 -3.54402 0.00315974
251 1 5.13411 -6.37944 1.81816 -3.53824 0.00426411
252 1 7.59432 -9.58902 -3.60434 -3.54083 0.000301466
253 1 7.24408 -7.81427 -1.79684 -3.54078 0.000342609
254 1 6.89699 -6.03658 0.01066 -3.54005 0.000693099
255 1 6.54307 -4.25799 1.81816 -3.5385 0.0020611
256 1 9.01178 -7.46224 -3.60434 -3.53987 0.000139077
257 1 8.6589 -5.68453 -1.79684 -3.54017 0.000218414
258 1 8.30119 -3.90425 0.01066 -3.54032 0.000210044
259 1 7.93715 -2.12635 1.81816 -3.54022 0.000857477
260 1 10.4213 -5.32986 -3.60434 -3.54028 3.2091e-05
261 1 10.0629 -3.55089 -1.79684 -3.54061 6.50798e-05
262 1 9.70308 -1.77367 0.0106601 -3.54036 0.000177861
263 1 9.34271 -0.000625657 1.81816 -3.53962 0.000280019
264 1 11.8279 -3.19766 -3.60434 -3.54039 1.7402e-05
265 1 11.4699 -1.42094 -1.79684 -3.54016 2.55375e-05
266 1 11.1107 0.354441 0.0106606 -3.5398 0.000106811
267 1 10.7482 2.12881 1.81816 -3.53978 0.000144265
268 1 13.2366 -1.06726 -3.60434 -3.5401 1.02335e-05
269 1 12.8772 0.709263 -1.79684 -3.54007 3.27267e-05
270 1 12.5153 2.48506 0.0106608 -3.5402 0.000107527
271 1 12.1517 4.25896 1.81816 -3.5404 0.000268756
272 1 14.6443 1.06325 -3.60434 -3.54026 3.58175e-05
273 1 14.2843 2.83869 -1.79684 -3.54034 0.000102963
274 1 13.9243 4.61194 0.0106609 -3.54031 0.000141271
275 1 13.5659 6.38239 1.81816 -3.54011 8.31374e-05
276 1 16.0552 3.19085 -3.60434 -3.54031 6.05172e-05
277 1 15.698 4.96364 -1.79684 -3.54021 4.89562e-05
278 1 15.3416 6.73456 0.0106611 -3.54006 2.82061e-05
279 1 14.9858 8.50415 1.81816 -3.54002 1.9741e-05
280 1 17.4717 5.31513 -3.60434 -3.54018 1.66898e-05
281 1 17.1165 7.08655 -1.79684 -3.54013 1.35081e-05
282 1 16.7614 8.85696 0.0106612 -3.54016 1.64338e-05
283 1 16.4065 10.6264 1.81816 -3.54023 2.57429e-05
284 1 18.891 7.4384 -3.60434 -3.5402 9.19437e-06
285 1 18.5368 9.20913 -1.79684 -3.54022 1.40467e-05
286 1 18.1831 10.9788 0.0106614 -3.54023 1.71409e-05
287 1 17.8303 12.7474 1.81816 -3.54018 1.37886e-05
288 1 20.312 9.56103 -3.60434 -3.54023 8.0009e-06
289 1 19.9593 11.331 -1.79684 -3.5402 8.18251e-06
290 1 19.6071 13.1001 0.0106621 -3.54014 1.09286e-05
291 1 19.2555 14.8688 1.81816 -3.54009 2.12492e-05
292 1 21.7348 11.6834 -3.60434 -3.54018 5.62371e-06
293 1 21.3827 13.4533 -1.79684 -3.54014 1.15569e-05
294 1 21.0307 15.223 0.0106623 -3.54012 1.85532e-05
295 1 20.6784 16.9929 1.81816 -3.54013 2.06306e-05
296 1 23.1572 13.8068 -3.60434 -3.54016 1.03402e-05
297 1 22.8047 15.5775 -1.79684 -3.54015 1.33078e-05
298 1 22.4517 17.3482 0.0106624 -3.54016 1.28111e-05
299 1 24.5777 15.9321 -3.60434 -3.54018 8.76359e-06
300 1 24.2242 17.7036 -1.79684 -3.54018 7.92523e-06
301 1 25.9962 18.0589 -3.60434 -3.54019 4.83924e-06
302 1 1.89655 -17.9448 0.0106592 -3.45533 0.646123
303 1 1.38349 -16.1783 1.81816 -3.43732 0.700291
304 1 3.60964 -17.6697 -1.79684 -3.54242 0.0640852
305 1 3.26537 -15.8928 0.0106593 -3.51762 0.0832471
306 1 2.95985 -14.2008 1.81816 -3.50884 0.0746865
307 1 5.39206 -17.3667 -3.60434 -3.54398 0.0100637
308 1 5.08294 -15.6021 -1.79684 -3.53528 0.00845489
309 1 4.76727 -13.846 0.0106598 -3.53118 0.0193132
310 1 4.42959 -12.0931 1.81816 -3.53672 0.0145398
311 1 6.8679 -15.2733 -3.60434 -3.53857 0.00405334
312 1 6.5392 -13.4998 -1.79684 -3.53738 0.00472574
313 1 6.18957 -11.722 0.0106599 -3.5391 0.00124939
314 1 5.82775 -9.94276 1.81816 -3.54337 0.00265246
315 1 8.30032 -13.1481 -3.60434 -3.54001 0.000642422
316 1 7.94932 -11.3669 -1.79684 -3.54041 0.000218804
317 1 7.59432 -9.58902 0.01066 -3.54083 0.000301466
318 1 7.24408 -7.81427 1.81816 -3.54078 0.000342609
319 1 9.71353 -11.0156 -3.60434 -3.54057 4.81925e-05
320 1 9.36279 -9.23827 -1.79684 -3.54002 1.75066e-05
321 1 9.01178 -7.46224 0.0106601 -3.53987 0.000139077
322 1 8.6589 -5.68453 1.81816 -3.54017 0.000218414
323 1 11.1297 -8.88605 -3.60434 -3.54 4.0553e-05
324 1 10.777 -7.10839 -1.79684 -3.53993 6.38797e-05
325 1 10.4213 -5.32986 0.0106606 -3.54028 3.2091e-05
326 1 10.0629 -3.55089 1.81816 -3.54061 6.50798e-05
327 1 12.5416 -6.75391 -3.60434 -3.54016 1.88859e-05
328 1 12.1854 -4.97554 -1.79684 -3.54031 1.28277e-05
329 1 11.8279 -3.19766 0.0106607 -3.54039 1.7402e-05
330 1 11.4699 -1.42094 1.81816 -3.54016 2.55375e-05
331 1 13.9511 -4.62147 -3.60434 -3.54027 7.16745e-06
332 1 13.5942 -2.84414 -1.79684 -3.54021 3.72389e-06
333 1 13.2366 -1.06726 0.0106608 -3.5401 1.02335e-05
334 1 12.8772 0.709263 1.81816 -3.54007 3.27267e-05
335 1 15.3612 -2.49017 -3.60434 -3.54017 4.02773e-06
336 1 15.0034 -0.713293 -1.79684 -3.54018 8.72123e-06
337 1 14.6443 1.06325 0.010661 -3.54026 3.58175e-05
338 1 14.2843 2.83869 1.81816 -3.54034 0.000102963
339 1 16.7712 -0.359586 -3.60434 -3.54026 1.73903e-05
340 1 16.4132 1.41625 -1.79684 -3.54031 4.15131e-05
341 1 16.0552 3.19085 0.0106611 -3.54031 6.05172e-05
342 1 15.698 4.96364 1.81816 -3.54021 4.89562e-05
343 1 18.1837 1.76866 -3.60434 -3.5403 2.9579e-05
344 1 17.8274 3.54253 -1.79684 -3.54025 2.61234e-05
345 1 17.4717 5.31513 0.0106613 -3.54018 1.66898e-05
346 1 17.1165 7.08655 1.81816 -3.54013 1.35081e-05
347 1 19.6001 3.89426 -3.60434 -3.54023 1.12166e-05
348 1 19.2454 5.66675 -1.79684 -3.5402 7.86659e-06
349 1 18.891 7.4384 0.010662 -3.5402 9.19437e-06
350 1 18.5368 9.20913 1.81816 -3.54022 1.40467e-05
351 1 21.0191 6.01854 -3.60434 -3.54022 5.21327e-06
352 1 20.6654 7.79019 -1.79684 -3.54023 6.45008e-06
353 1 20.312 9.56103 0.0106622 -3.54023 8.0009e-06
354 1 19.9593 11.331 1.81816 -3.5402 8.18251e-06
355 1 22.4398 8.1421 -3.60434 -3.54023 3.36614e-06
356 1 22.0871 9.91305 -1.79684 -3.54021 3.54588e-06
357 1 21.7348 11.6834 0.0106624 -3.54018 5.62371e-06
358 1 21.3827 13.4533 1.81816 -3.54014 1.15569e-05
359 1 23.8617 10.2655 -3.60434 -3.5402 2.40379e-06
360 1 23.5094 12.0362 -1.79684 -3.54017 5.68382e-06
361 1 23.1572 13.8068 0.0106625 -3.54016 1.03402e-05
362 1 22.8047 15.5775 1.81816 -3.54015 1.33078e-05
363 1 25.2833 12.3896 -3.60434 -3.54018 5.48241e-06
364 1 24.9307 14.1608 -1.79684 -3.54017 7.93799e-06
365 1 24.5777 15.9321 0.0106627 -3.54018 8.76359e-06
366 1 24.2242 17.7036 1.81816 -3.54018 7.92523e-06
367 1 26.7035 14.515 -3.60434 -3.54019 5.58049e-06
368 1 26.3501 16.2869 -1.79684 -3.54019 5.53502e-06
369 1 25.9962 18.0589 0.0106629 -3.54019 4.83924e-06
370 1 28.1221 16.6417 -3.60434 -3.5402 3.37259e-06
371 1 27.7679 18.4141 -1.79684 -3.5402 2.86287e-06
372 1 3.60964 -17.6697 1.81816 -3.54242 0.0640852
373 1 5.39206 -17.3667 0.0106599 -3.54398 0.0100637
374 1 5.08294 -15.6021 1.81816 -3.53528 0.00845489
375 1 7.18874 -17.0409 -1.79684 -3.53993 0.00177598
376 1 6.8679 -15.2733 0.01066 -3.53857 0.00405334
377 1 6.5392 -13.4998 1.81816 -3.53738 0.00472574
378 1 8.97612 -16.6971 -3.60434 -3.53918 0.00126414
379 1 8.64172 -14.9266 -1.79684 -3.53949 0.00183926
380 1 8.30032 -13.1481 0.01066 -3.54001 0.000642422
381 1 7.94932 -11.3669 1.81816 -3.54041 0.000218804
382 1 10.4113 -14.5722 -3.60434 -3.5401 0.000487176
383 1 10.0638 -12.7948 -1.79684 -3.54064 0.000128864
384 1 9.71353 -11.0156 0.0106601 -3.54057 4.81925e-05
385 1 9.36279 -9.23827 1.81816 -3.54002 1.75066e-05
386 1 11.8308 -12.4403 -3.60434 -3.54052 6.07941e-05
387 1 11.4805 -10.6634 -1.79684 -3.54035 2.90445e-05
388 1 11.1297 -8.88605 0.0106606 -3.54 4.0553e-05
389 1 10.777 -7.10839 1.81816 -3.53993 6.38797e-05
390 1 13.2482 -10.309 -3.60434 -3.54022 4.09568e-05
391 1 12.8958 -8.53194 -1.79684 -3.54013 3.7078e-05
392 1 12.5416 -6.75391 0.0106608 -3.54016 1.88859e-05
393 1 12.1854 -4.97554 1.81816 -3.54031 1.28277e-05
394 1 14.6623 -8.1766 -3.60434 -3.54023 2.24962e-05
395 1 14.3072 -6.39915 -1.79684 -3.54027 1.14055e-05
396 1 13.9511 -4.62147 0.0106609 -3.54027 7.16745e-06
397 1 13.5942 -2.84414 1.81816 -3.54021 3.72389e-06
398 1 16.074 -6.04408 -3.60434 -3.54027 9.57701e-06
399 1 15.7179 -4.26714 -1.79684 -3.54023 5.53353e-06
400 1 15.3612 -2.49017 0.0106611 -3.54017 4.02773e-06
401 1 15.0034 -0.713293 1.81816 -3.54018 8.72123e-06
402 1 17.4856 -3.91245 -3.60434 -3.54022 6.28166e-06
403 1 17.1288 -2.13599 -1.79684 -3.54022 7.27787e-06
404 1 16.7712 -0.359586 0.0106612 -3.54026 1.73903e-05
405 1 16.4132 1.41625 1.81816 -3.54031 4.15131e-05
406 1 18.8974 -1.78184 -3.60434 -3.54026 1.20738e-05
407 1 18.5405 -0.00626978 -1.79684 -3.54029 2.15484e-05
408 1 18.1837 1.76866 0.0106614 -3.5403 2.9579e-05
409 1 17.8274 3.54253 1.81816 -3.54025 2.61234e-05
410 1 20.3111 0.346807 -3.60434 -3.54028 1.75346e-05
411 1 19.9553 2.12092 -1.79684 -3.54026 1.63976e-05
412 1 19.6001 3.89426 0.0106621 -3.54023 1.12166e-05
413 1 19.2454 5.66675 1.81816 -3.5402 7.86659e-06
414 1 21.7277 2.47329 -3.60434 -3.54025 8.95789e-06
415 1 21.3732 4.24621 -1.79684 -3.54023 6.10058e-06
416 1 21.0191 6.01854 0.0106623 -3.54022 5.21327e-06
417 1 20.6654 7.79019 1.81816 -3.54023 6.45008e-06
418 1 23.1466 4.59843 -3.60434 -3.54023 4.0064e-06
419 1 22.793 6.37053 -1.79684 -3.54024 3.45161e-06
420 1 22.4398 8.1421 0.0106624 -3.54023 3.36614e-06
421 1 22.0871 9.91305 1.81816 -3.54021 3.54588e-06
422 1 24.5669 6.72282 -3.60434 -3.54023 1.824e-06
423 1 24.2141 8.49433 -1.79684 -3.54022 1.47432e-06
424 1 23.8617 10.2655 0.0106626 -3.5402 2.40379e-06
425 1 23.5094 12.0362 1.81816 -3.54017 5.68382e-06
426 1 25.9882 8.84699 -3.60434 -3.54021 1.13732e-06
427 1 25.6357 10.6183 -1.79684 -3.5402 2.73519e-06
428 1 25.2833 12.3896 0.0106628 -3.54018 5.48241e-06
429 1 24.9307 14.1608 1.81816 -3.54017 7.93799e-06
430 1 27.4093 10.9717 -3.60434 -3.5402 3.03604e-06
431 1 27.0565 12.7433 -1.79684 -3.54019 4.67139e-06
432 1 26.7035 14.515 0.010663 -3.54019 5.58049e-06
433 1 26.3501 16.2869 1.81816 -3.54019 5.53502e-06
434 1 28.8292 13.0974 -3.60434 -3.5402 3.59806e-06
435 1 28.4759 14.8695 -1.79684 -3.5402 3.68253e-06
436 1 28.1221 16.6417 0.0106632 -3.5402 3.37259e-06
437 1 27.7679 18.4141 1.81816 -3.5402 2.86287e-06
438 1 30.2479 15.2241 -3.60434 -3.5402 2.28393e-06
439 1 29.8938 16.9966 -1.79684 -3.54021 2.00884e-06
440 1 31.6653 17.3515 -3.60434 -3.54021 1.24393e-06
441 1 7.18874 -17.0409 1.81816 -3.53993 0.00177598
442 1 8.97612 -16.6971 0.0106601 -3.53918 0.00126414
443 1 8.64172 -14.9266 1.81816 -3.53949 0.00183926
444 1 11.0963 -18.1124 -3.60434 -3.53955 0.000314415
445 1 10.7551 -16.3448 -1.79684 -3.53953 0.000674424
446 1 10.4113 -14.5722 0.0106601 -3.5401 0.000487176
447 1 10.0638 -12.7948 1.81816 -3.54064 0.000128864
448 1 12.5294 -15.9889 -3.60434 -3.53995 0.000236525
449 1 12.1808 -14.2159 -1.79684 -3.54031 0.000116627
450 1 11.8308 -12.4403 0.0106607 -3.54052 6.07941e-05
451 1 11.4805 -10.6634 1.81816 -3.54035 2.90445e-05
452 1 13.9512 -13.8592 -3.60434 -3.5403 4.10681e-05
453 1 13.5998 -12.0848 -1.79684 -3.54031 3.76725e-05
454 1 13.2482 -10.309 0.0106608 -3.54022 4.09568e-05
455 1 12.8958 -8.53194 1.81816 -3.54013 3.7078e-05
456 1 15.3693 -11.7283 -3.60434 -3.54022 2.72577e-05
457 1 15.0162 -9.95312 -1.79684 -3.54021 3.0736e-05
458 1 14.6623 -8.1766 0.010661 -3.54023 2.24962e-05
459 1 14.3072 -6.39915 1.81816 -3.54027 1.14055e-05
460 1 16.7846 -9.59652 -3.60434 -3.54023 1.68954e-05
461 1 16.4296 -7.82068 -1.79684 -3.54026 1.36577e-05
462 1 16.074 -6.04408 0.0106611 -3.54027 9.57701e-06
463 1 15.7179 -4.26714 1.81816 -3.54023 5.53353e-06
464 1 18.1979 -7.46453 -3.60434 -3.54025 8.50115e-06
465 1 17.8419 -5.6887 -1.79684 -3.54025 7.68799e-06
466 1 17.4856 -3.91245 0.0106613 -3.54022 6.28166e-06
467 1 17.1288 -2.13599 1.81816 -3.54022 7.27787e-06
468 1 19.6107 -5.33316 -3.60434 -3.54024 6.25189e-06
469 1 19.2542 -3.55759 -1.79684 -3.54024 7.60795e-06
470 1 18.8974 -1.78184 0.010662 -3.54026 1.20738e-05
471 1 18.5405 -0.00626978 1.81816 -3.54029 2.15484e-05
472 1 21.0238 -3.20278 -3.60434 -3.54026 8.91655e-06
473 1 20.6673 -1.42787 -1.79684 -3.54028 1.36763e-05
474 1 20.3111 0.346807 0.0106622 -3.54028 1.75346e-05
475 1 19.9553 2.12092 1.81816 -3.54026 1.63976e-05
476 1 22.4383 -1.07403 -3.60434 -3.54027 1.14838e-05
477 1 22.0828 0.699841 -1.79684 -3.54026 1.15778e-05
478 1 21.7277 2.47329 0.0106624 -3.54025 8.95789e-06
479 1 21.3732 4.24621 1.81816 -3.54023 6.10058e-06
480 1 23.8551 1.05295 -3.60434 -3.54025 7.20364e-06
481 1 23.5006 2.82587 -1.79684 -3.54024 5.41576e-06
482 1 23.1466 4.59843 0.0106625 -3.54023 4.0064e-06
483 1 22.793 6.37053 1.81816 -3.54024 3.45161e-06
484 1 25.2738 3.17868 -3.60434 -3.54024 3.41756e-06
485 1 24.9201 4.95091 -1.79684 -3.54024 2.52862e-06
486 1 24.5669 6.72282 0.0106627 -3.54023 1.824e-06
487 1 24.2141 8.49433 1.81816 -3.54022 1.47432e-06
488 1 26.6938 5.3037 -3.60434 -3.54023 1.36689e-06
489 1 26.3408 7.07546 -1.79684 -3.54022 9.02431e-07
490 1 25.9882 8.84699 0.0106629 -3.54021 1.13732e-06
491 1 25.6357 10.6183 1.81816 -3.5402 2.73519e-06
492 1 28.1146 7.4285 -3.60434 -3.54022 7.30352e-07
493 1 27.7619 9.20012 -1.79684 -3.54021 1.49452e-06
494 1 27.4093 10.9717 0.0106631 -3.5402 3.03604e-06
495 1 27.0565 12.7433 1.81816 -3.54019 4.67139e-06
496 1 29.5352 9.55366 -3.60434 -3.54021 1.85683e-06
497 1 29.1823 11.3255 -1.79684 -3.5402 2.93393e-06
498 1 28.8292 13.0974 0.0106632 -3.5402 3.59806e-06
499 1 28.4759 14.8695 1.81816 -3.5402 3.68253e-06
500 1 30.955 11.6796 -3.60434 -3.54021 2.48265e-06
501 1 30.6016 13.4518 -1.79684 -3.5402 2.49567e-06
502 1 30.2479 15.2241 0.0106634 -3.5402 2.28393e-06
503 1 29.8938 16.9966 1.81816 -3.54021 2.00884e-06
504 1 32.3737 13.8063 -3.60434 -3.54021 1.5182e-06
505 1 32.0197 15.5789 -1.79684 -3.54021 1.38687e-06
506 1 31.6653 17.3515 0.0106635 -3.54021 1.24393e-06
507 1 33.7914 15.9337 -3.60434 -3.54021 9.84952e-07
508 1 33.4368 17.7064 -1.79684 -3.54022 8.46303e-07
509 1 35.2083 18.0613 -3.60434 -3.54023 5.29238e-07
510 1 11.0963 -18.1124 0.0106606 -3.53955 0.000314415
511 1 10.7551 -16.3448 1.81816 -3.53953 0.000674424
512 1 12.8759 -17.7586 -1.79684 -3.53977 0.000242508
513 1 12.5294 -15.9889 0.0106608 -3.53995 0.000236525
514 1 12.1808 -14.2159 1.81816 -3.54031 0.000116627
515 1 14.652 -17.4025 -3.60434 -3.54 0.000116367
516 1 14.3021 -15.6319 -1.79684 -3.54016 7.47506e-05
517 1 13.9512 -13.8592 0.0106609 -3.5403 4.10681e-05
518 1 13.5998 -12.0848 1.81816 -3.54031 3.76725e-05
519 1 16.0744 -15.2746 -3.60434 -3.54021 2.89682e-05
520 1 15.722 -13.5021 -1.79684 -3.54024 2.27905e-05
521 1 15.3693 -11.7283 0.0106611 -3.54022 2.72577e-05
522 1 15.0162 -9.95312 1.81816 -3.54021 3.0736e-05
523 1 17.4928 -13.1448 -3.60434 -3.54021 1.47819e-05
524 1 17.139 -11.3713 -1.79684 -3.5402 1.69613e-05
525 1 16.7846 -9.59652 0.0106612 -3.54023 1.68954e-05
526 1 16.4296 -7.82068 1.81816 -3.54026 1.36577e-05
527 1 18.9088 -11.0141 -3.60434 -3.54021 8.6692e-06
528 1 18.5535 -9.23971 -1.79684 -3.54023 8.56105e-06
529 1 18.1979 -7.46453 0.0106614 -3.54025 8.50115e-06
530 1 17.8419 -5.6887 1.81816 -3.54025 7.68799e-06
531 1 20.323 -8.88296 -3.60434 -3.54023 4.37156e-06
532 1 19.9669 -7.10832 -1.79684 -3.54024 5.35523e-06
533 1 19.6107 -5.33316 0.0106621 -3.54024 6.25189e-06
534 1 19.2542 -3.55759 1.81816 -3.54024 7.60795e-06
535 1 21.7366 -6.75222 -3.60434 -3.54023 3.71396e-06
536 1 21.3802 -4.97764 -1.79684 -3.54024 5.69719e-06
537 1 21.0238 -3.20278 0.0106623 -3.54026 8.91655e-06
538 1 20.6673 -1.42787 1.81816 -3.54028 1.36763e-05
539 1 23.1506 -4.62232 -3.60434 -3.54025 5.63301e-06
540 1 22.7943 -2.84815 -1.79684 -3.54026 8.82877e-06
541 1 22.4383 -1.07403 0.0106624 -3.54027 1.14838e-05
542 1 22.0828 0.699841 1.81816 -3.54026 1.15778e-05
543 1 24.5657 -2.49371 -3.60434 -3.54026 7.31857e-06
544 1 24.2102 -0.720272 -1.79684 -3.54026 8.12431e-06
545 1 23.8551 1.05295 0.0106626 -3.54025 7.20364e-06
546 1 23.5006 2.82587 1.81816 -3.54024 5.41576e-06
547 1 25.9826 -0.366538 -3.60434 -3.54024 5.30632e-06
548 1 25.628 1.40618 -1.79684 -3.54024 4.46744e-06
549 1 25.2738 3.17868 0.0106628 -3.54024 3.41756e-06
550 1 24.9201 4.95091 1.81816 -3.54024 2.52862e-06
551 1 27.4011 1.75954 -3.60434 -3.54023 2.66795e-06
552 1 27.0473 3.53172 -1.79684 -3.54023 1.99896e-06
553 1 26.6938 5.3037 0.010663 -3.54023 1.36689e-06
554 1 26.3408 7.07546 1.81816 -3.54022 9.02431e-07
555 1 28.8208 3.88498 -3.60434 -3.54023 1.03816e-06
556 1 28.4675 5.6568 -1.79684 -3.54022 7.20471e-07
557 1 28.1146 7.4285 0.0106632 -3.54022 7.30352e-07
558 1 27.7619 9.20012 1.81816 -3.54021 1.49452e-06
559 1 30.2411 6.01022 -3.60434 -3.54022 5.12703e-07
560 1 29.8881 7.78193 -1.79684 -3.54021 9.15125e-07
561 1 29.5352 9.55366 0.0106633 -3.54021 1.85683e-06
562 1 29.1823 11.3255 1.81816 -3.5402 2.93393e-06
563 1 31.6614 8.13571 -3.60434 -3.54021 1.18208e-06
564 1 31.3083 9.90758 -1.79684 -3.54021 2.01052e-06
565 1 30.955 11.6796 0.0106635 -3.54021 2.48265e-06
566 1 30.6016 13.4518 1.81816 -3.5402 2.49567e-06
567 1 33.081 10.2618 -3.60434 -3.54021 1.87289e-06
568 1 32.7274 12.034 -1.79684 -3.54021 1.75049e-06
569 1 32.3737 13.8063 0.0106636 -3.54021 1.5182e-06
570 1 32.0197 15.5789 1.81816 -3.54021 1.38687e-06
571 1 34.4996 12.3886 -3.60434 -3.5402 9.07316e-07
572 1 34.1456 14.161 -1.79684 -3.54021 8.75395e-07
573 1 33.7914 15.9337 0.0106637 -3.54021 9.84952e-07
574 1 33.4368 17.7064 1.81816 -3.54022 8.46303e-07
575 1 35.9175 14.5158 -3.60434 -3.54021 7.70189e-07
576 1 35.563 16.2885 -1.79684 -3.54023 9.60976e-07
577 1 35.2083 18.0613 0.0106637 -3.54023 5.29238e-07
578 1 37.3346 16.6433 -3.60434 -3.54024 9.80922e-07