ITEM: TIMESTEP
0
ITEM: NUMBER OF ATOMS
2504
ITEM: BOX BOUNDS xy xz yz mm pp pp
-5.5498871899999997e+01 5.5498871899999997e+01 0.0000000000000000e+00
-1.8432957300000002e+01 1.8432957300000002e+01 0.0000000000000000e+00
-3.6150000000000002e+00 3.6150000000000002e+00 0.0000000000000000e+00
ITEM: ATOMS id type x y z c_eng c_csym
1 1 0.627444 16.8018 -3.59309 -3.43595 3.4434
2 1 0.29569 -18.2408 -1.78559 -3.27679 8.93733
3 1 0.960956 13.0746 -3.59309 -3.50723 0.281919
4 1 0.824646 14.8382 -1.78559 -3.504 0.579323
5 1 0.627444 16.8018 0.0219133 -3.43595 3.4434
6 1 0.29569 -18.2408 1.82941 -3.27679 8.93733
7 1 2.55457 15.1924 -3.59309 -3.53915 0.117256
8 1 2.27496 17.0396 -1.78559 -3.51661 0.0921649
9 1 3.95722 17.3888 -3.59309 -3.54278 0.0320226
10 1 0.437495 7.36693 -3.59309 -3.51887 0.170073
11 1 0.100959 9.08857 -1.78559 -3.45773 0.65778
12 1 1.75623 9.57241 -3.59309 -3.52476 0.0931319
13 1 1.28666 11.3481 -1.78559 -3.52425 0.245105
14 1 0.960956 13.0746 0.0219133 -3.50723 0.281919
15 1 0.824646 14.8382 1.82941 -3.504 0.579323
16 1 3.14524 11.6829 -3.59309 -3.5308 0.0264673
17 1 2.84772 13.4071 -1.78559 -3.52058 0.0568011
18 1 2.55457 15.1924 0.0219133 -3.53915 0.117256
19 1 2.27496 17.0396 1.82941 -3.51661 0.0921649
20 1 4.64617 13.7776 -3.59309 -3.534 0.0130374
21 1 4.31103 15.558 -1.78559 -3.53742 0.0209535
22 1 3.95722 17.3888 0.0219134 -3.54278 0.0320226
23 1 6.06583 15.9289 -3.59309 -3.54125 0.00460751
24 1 5.70865 17.7215 -1.78559 -3.54512 0.0184333
25 1 7.49809 18.0533 -3.59309 -3.54201 0.00545804
26 1 1.14483 3.78245 -3.59309 -3.5466 0.0282597
27 1 0.786696 5.58376 -1.78559 -3.54612 0.0156446
28 1 0.437495 7.36693 0.0219133 -3.51887 0.169893
29 1 0.100959 9.08857 1.82941 -3.45858 0.65778
30 1 2.54879 5.94753 -3.59309 -3.54044 0.00543657
31 1 2.19648 7.73587 -1.78559 -3.52495 0.0385684
32 1 1.75623 9.57241 0.0219134 -3.52476 0.0931319
33 1 1.28666 11.3481 1.82941 -3.52432 0.245105
34 1 3.91448 8.13374 -3.59309 -3.54132 0.0107057
35 1 3.50988 9.92638 -1.78559 -3.54296 0.0460342
36 1 3.14524 11.6829 0.0219134 -3.5308 0.0264673
37 1 2.84772 13.4071 1.82941 -3.52058 0.0568011
38 1 5.31031 10.2678 -3.59309 -3.5408 0.00752605
39 1 4.97506 12.0199 -1.78559 -3.5342 0.00489783
40 1 4.64617 13.7776 0.0219143 -3.534 0.0130374
41 1 4.31103 15.558 1.82941 -3.53742 0.0209535
42 1 6.77047 12.376 -3.59309 -3.53748 0.00234048
43 1 6.42398 14.145 -1.78559 -3.53784 0.00221607
44 1 6.06583 15.9289 0.0219143 -3.54125 0.00460751
45 1 5.70865 17.7215 1.82941 -3.54512 0.0184333
46 1 8.19767 14.5084 -3.59309 -3.54041 0.000589966
47 1 7.84153 16.2823 -1.78559 -3.54169 0.00364445
48 1 7.49809 18.0533 0.0219143 -3.54201 0.00545804
49 1 9.63179 16.6289 -3.59309 -3.54078 0.00143096
50 1 9.29719 18.3901 -1.78559 -3.53987 0.000974222
51 1 0.463384 -1.87775 -3.59309 -3.52075 0.0659108
52 1 0.140844 -0.183073 -1.78559 -3.49832 0.151251
53 1 1.91609 0.240906 -3.59309 -3.53404 0.0119312
54 1 1.53116 1.99706 -1.78559 -3.53896 0.00858321
55 1 1.14483 3.78245 0.0219133 -3.5466 0.0280797
56 1 0.786696 5.58376 1.82941 -3.54495 0.0156446
57 1 3.29511 2.4066 -3.59309 -3.53995 0.00117432
58 1 2.91311 4.17237 -1.78559 -3.54206 0.00318476
59 1 2.54879 5.94753 0.0219133 -3.54044 0.00543657
60 1 2.19648 7.73587 1.82941 -3.52514 0.0385684
61 1 4.68597 4.56127 -3.59309 -3.53916 0.000641969
62 1 4.30991 6.33495 -1.78559 -3.53766 0.00402904
63 1 3.91448 8.13374 0.0219134 -3.54132 0.0107057
64 1 3.50988 9.92638 1.82941 -3.54296 0.0460342
65 1 6.06546 6.72278 -3.59309 -3.54106 0.00254371
66 1 5.67755 8.50041 -1.78559 -3.54304 0.0101455
67 1 5.31031 10.2678 0.0219143 -3.5408 0.00752605
68 1 4.97506 12.0199 1.82941 -3.5342 0.00489783
69 1 7.46652 8.85764 -3.59309 -3.54086 0.00266273
70 1 7.11338 10.6159 -1.78559 -3.53873 0.000735874
71 1 6.77047 12.376 0.0219143 -3.53748 0.00234048
72 1 6.42398 14.145 1.82941 -3.53784 0.00221607
73 1 8.90572 10.9733 -3.59309 -3.53897 0.000382062
74 1 8.55355 12.7373 -1.78559 -3.53925 0.000438392
75 1 8.19767 14.5084 0.0219143 -3.54041 0.000589966
76 1 7.84153 16.2823 1.82941 -3.54169 0.00364445
77 1 10.3349 13.0975 -3.59309 -3.54028 0.000151537
78 1 9.97979 14.864 -1.78559 -3.54089 0.000918654
79 1 9.63179 16.6289 0.0219143 -3.54078 0.00143096
80 1 9.29719 18.3901 1.82941 -3.53987 0.000974222
81 1 11.7688 15.2158 -3.59308 -3.54048 0.000439365
82 1 11.426 16.9759 -1.78558 -3.53996 0.000298334
83 1 13.2174 17.3266 -3.59308 -3.53964 0.00022097
84 1 1.21374 -5.37844 -3.59309 -3.54451 0.0793455
85 1 0.818984 -3.63117 -1.78559 -3.55021 0.0529553
86 1 0.463384 -1.87775 0.0219133 -3.52075 0.0657308
87 1 0.140844 -0.183073 1.82941 -3.49796 0.151251
88 1 2.62682 -3.23701 -3.59309 -3.54097 0.00812046
89 1 2.27748 -1.51103 -1.78559 -3.53418 0.0103754
90 1 1.91609 0.240906 0.0219134 -3.53404 0.0118412
91 1 1.53116 1.99706 1.82941 -3.53859 0.00858321
92 1 4.06071 -1.11105 -3.59309 -3.53893 0.00373481
93 1 3.68199 0.641895 -1.78559 -3.53957 0.00101499
94 1 3.29511 2.4066 0.0219134 -3.53995 0.00117432
95 1 2.91311 4.17237 1.82941 -3.54226 0.00318476
96 1 5.44949 1.03613 -3.59309 -3.54069 0.000561688
97 1 5.06533 2.79691 -1.78559 -3.54043 0.000228567
98 1 4.68597 4.56127 0.0219143 -3.53916 0.000641969
99 1 4.30991 6.33495 1.82941 -3.53766 0.00402904
100 1 6.83622 3.18044 -3.59309 -3.53967 0.000321428
101 1 6.45367 4.94727 -1.78559 -3.53925 0.000443082
102 1 6.06546 6.72278 0.0219143 -3.54106 0.00254371
103 1 5.67755 8.50041 1.82941 -3.54304 0.0101455
104 1 8.22082 5.32507 -3.59309 -3.54037 0.000943447
105 1 7.83816 7.09365 -1.78559 -3.54129 0.00281815
106 1 7.46652 8.85764 0.0219143 -3.54086 0.00266273
107 1 7.11338 10.6159 1.82941 -3.53873 0.000735874
108 1 9.62218 7.45457 -3.59309 -3.54036 0.0011044
109 1 9.25969 9.21405 -1.78559 -3.53955 0.000300858
110 1 8.90572 10.9733 0.0219143 -3.53897 0.000382062
111 1 8.55355 12.7373 1.82941 -3.53925 0.000438392
112 1 11.0484 9.57148 -3.59308 -3.53945 8.286e-05
113 1 10.6915 11.3329 -1.78558 -3.53961 6.40943e-05
114 1 10.3349 13.0975 0.0219143 -3.54028 0.000151537
115 1 9.97979 14.864 1.82941 -3.54089 0.000918654
116 1 12.4754 11.6907 -3.59308 -3.54006 6.2558e-05
117 1 12.1197 13.4537 -1.78558 -3.54045 0.000268588
118 1 11.7688 15.2158 0.0219153 -3.54048 0.000439365
119 1 11.426 16.9759 1.82942 -3.53996 0.000298334
120 1 13.9069 13.807 -3.59308 -3.54025 0.000152566
121 1 13.5593 15.5671 -1.78558 -3.54003 0.000108259
122 1 13.2174 17.3266 0.0219153 -3.53964 0.00022097
123 1 15.3474 15.9198 -3.59308 -3.53984 9.21602e-05
124 1 15.0037 17.681 -1.78558 -3.53967 0.000269742
125 1 16.785 18.0377 -3.59308 -3.53981 0.000220512
126 1 0.730728 -10.882 -3.59309 -3.46678 2.60486
127 1 0.478619 -9.12986 -1.78559 -3.29945 7.9998
128 1 2.13942 -8.80707 -3.59309 -3.49908 0.265984
129 1 1.70301 -7.04675 -1.78559 -3.49892 0.250845
130 1 1.21374 -5.37844 0.0219133 -3.54452 0.0791655
131 1 0.818984 -3.63117 1.82941 -3.54921 0.0529553
132 1 3.44705 -6.68726 -3.59309 -3.53014 0.0618749
133 1 3.02988 -4.94208 -1.78559 -3.53183 0.0390552
134 1 2.62682 -3.23701 0.0219133 -3.54097 0.00812046
135 1 2.27748 -1.51103 1.82941 -3.53447 0.0103754
136 1 4.81537 -4.58491 -3.59309 -3.53566 0.0173238
137 1 4.43827 -2.8459 -1.78559 -3.53459 0.00851888
138 1 4.06071 -1.11105 0.0219143 -3.53893 0.00373481
139 1 3.68199 0.641895 1.82941 -3.53967 0.00101499
140 1 6.21533 -2.47639 -3.59309 -3.53696 0.00589789
141 1 5.83543 -0.720281 -1.78559 -3.53868 0.00262061
142 1 5.44949 1.03613 0.0219143 -3.54069 0.000561688
143 1 5.06533 2.79691 1.82941 -3.54043 0.000228567
144 1 7.60097 -0.346966 -3.59309 -3.53911 0.00198506
145 1 7.21896 1.41754 -1.78559 -3.53972 0.000944815
146 1 6.83622 3.18044 0.0219143 -3.53967 0.000321428
147 1 6.45367 4.94727 1.82941 -3.53925 0.000443082
148 1 8.98527 1.78741 -3.59309 -3.53938 0.000873346
149 1 8.60456 3.55614 -1.78559 -3.53953 0.000545107
150 1 8.22082 5.32507 0.0219143 -3.54037 0.000943447
151 1 7.83816 7.09365 1.82941 -3.54129 0.00281815
152 1 10.3723 3.92201 -3.59308 -3.53993 0.000779016
153 1 9.99473 5.69072 -1.78559 -3.54041 0.0011917
154 1 9.62218 7.45457 0.0219143 -3.54036 0.0011044
155 1 9.25969 9.21405 1.82941 -3.53955 0.000300858
156 1 11.7732 6.04765 -3.59308 -3.5401 0.000694083
157 1 11.4082 7.81092 -1.78558 -3.53976 0.000309695
158 1 11.0484 9.57148 0.0219153 -3.53945 8.286e-05
159 1 10.6915 11.3329 1.82942 -3.53961 6.40943e-05
160 1 13.1918 8.16499 -3.59308 -3.5397 0.000149982
161 1 12.833 9.92794 -1.78558 -3.53973 6.23139e-05
162 1 12.4754 11.6907 0.0219153 -3.54006 6.2558e-05
163 1 12.1197 13.4537 1.82942 -3.54045 0.000268588
164 1 14.6155 10.282 -3.59308 -3.53999 8.94979e-05
165 1 14.2597 12.0453 -1.78558 -3.54019 0.000121556
166 1 13.9069 13.807 0.0219153 -3.54025 0.000152566
167 1 13.5593 15.5671 1.82942 -3.54003 0.000108259
168 1 16.0442 12.3974 -3.59308 -3.54014 8.90747e-05
169 1 15.694 14.1592 -1.78558 -3.54004 5.94139e-05
170 1 15.3474 15.9198 0.0219153 -3.53984 9.21602e-05
171 1 15.0037 17.681 1.82942 -3.53967 0.000269742
172 1 17.4787 14.5115 -3.59308 -3.53995 5.94648e-05
173 1 17.1315 16.2741 -1.78558 -3.53983 0.00012958
174 1 16.785 18.0377 0.0219154 -3.53981 0.000220512
175 1 18.9116 16.6295 -3.59308 -3.53992 0.000122538
176 1 18.5625 18.3956 -1.78558 -3.53995 0.000140876
177 1 0.998921 -14.5004 -3.59309 -3.48922 0.452582
178 1 0.894326 -12.7593 -1.78559 -3.52898 0.428312
179 1 0.730728 -10.882 0.0219133 -3.46678 2.60486
180 1 0.478619 -9.12986 1.82941 -3.29657 7.9998
181 1 2.67724 -12.452 -3.59309 -3.5421 0.128595
182 1 2.44518 -10.6615 -1.78559 -3.53269 0.0979057
183 1 2.13942 -8.80707 0.0219134 -3.49908 0.265894
184 1 1.70301 -7.04675 1.82941 -3.49936 0.250845
185 1 4.16181 -10.3166 -3.59309 -3.5426 0.0275381
186 1 3.82443 -8.49826 -1.78559 -3.53855 0.0109613
187 1 3.44705 -6.68726 0.0219134 -3.53014 0.0618749
188 1 3.02988 -4.94208 1.82941 -3.532 0.0390552
189 1 5.54647 -8.15761 -3.59309 -3.54324 0.00296299
190 1 5.18591 -6.35927 -1.78559 -3.54062 0.00700792
191 1 4.81537 -4.58491 0.0219143 -3.53566 0.0173238
192 1 4.43827 -2.8459 1.82941 -3.53459 0.00851888
193 1 6.93759 -6.02271 -3.59309 -3.54135 0.000629866
194 1 6.5816 -4.24313 -1.78559 -3.53865 0.00305877
195 1 6.21533 -2.47639 0.0219143 -3.53696 0.00589789
196 1 5.83543 -0.720281 1.82941 -3.53868 0.00262061
197 1 8.33971 -3.89605 -3.59309 -3.53971 0.000570807
198 1 7.97594 -2.11808 -1.78559 -3.539 0.00177474
199 1 7.60097 -0.346966 0.0219143 -3.53911 0.00198506
200 1 7.21896 1.41754 1.82941 -3.53972 0.000944815
201 1 9.73238 -1.7628 -3.59309 -3.53985 0.000422589
202 1 9.36187 0.0150789 -1.78559 -3.53956 0.000870602
203 1 8.98527 1.78741 0.0219143 -3.53938 0.000873346
204 1 8.60456 3.55614 1.82941 -3.53953 0.000545107
205 1 11.1215 0.372153 -3.59308 -3.53984 0.000321766
206 1 10.749 2.14909 -1.78558 -3.53967 0.000555164
207 1 10.3723 3.92201 0.0219153 -3.53993 0.000779016
208 1 9.99473 5.69072 1.82941 -3.54041 0.0011917
209 1 12.5133 2.50505 -3.59308 -3.54006 0.000408559
210 1 12.1426 4.27912 -1.78558 -3.54015 0.000691555
211 1 11.7732 6.04765 0.0219153 -3.5401 0.000694083
212 1 11.4082 7.81092 1.82942 -3.53976 0.000309695
213 1 13.9155 4.63092 -3.59308 -3.54016 0.000390635
214 1 13.5524 6.39998 -1.78558 -3.53993 0.000301935
215 1 13.1918 8.16499 0.0219153 -3.5397 0.000149982
216 1 12.833 9.92794 1.82942 -3.53973 6.23139e-05
217 1 15.3307 6.75027 -3.59308 -3.53996 0.000136697
218 1 14.9727 8.5172 -1.78558 -3.53988 0.000104608
219 1 14.6155 10.282 0.0219153 -3.53999 8.94979e-05
220 1 14.2597 12.0453 1.82942 -3.54019 0.000121556
221 1 16.7523 8.8678 -3.59308 -3.54006 8.10149e-05
222 1 16.3974 10.6337 -1.78558 -3.54012 9.31001e-05
223 1 16.0442 12.3974 0.0219153 -3.54014 8.90747e-05
224 1 15.694 14.1592 1.82942 -3.54004 5.94139e-05
225 1 18.1786 10.984 -3.59308 -3.54015 6.02161e-05
226 1 17.8276 12.7485 -1.78558 -3.54008 5.03077e-05
227 1 17.4787 14.5115 0.0219154 -3.53995 5.94648e-05
228 1 17.1315 16.2741 1.82942 -3.53983 0.00012958
229 1 19.609 13.0997 -3.59308 -3.54005 4.2138e-05
230 1 19.2602 14.8646 -1.78558 -3.53996 7.646e-05
231 1 18.9116 16.6295 0.0219154 -3.53992 0.000122538
232 1 18.5625 18.3956 1.82942 -3.53995 0.000140876
233 1 21.0385 15.2184 -3.59308 -3.54001 7.34192e-05
234 1 20.6885 16.9856 -1.78558 -3.54001 8.9875e-05
235 1 22.4629 17.3418 -3.59308 -3.54008 5.79133e-05
236 1 1.89242 -17.8994 -3.59309 -3.45002 0.596346
237 1 1.36701 -16.1141 -1.78559 -3.44444 0.66485
238 1 0.998921 -14.5004 0.0219133 -3.48922 0.452582
239 1 0.894326 -12.7593 1.82941 -3.52898 0.428312
240 1 3.25415 -15.854 -3.59309 -3.51734 0.100496
241 1 2.95853 -14.1635 -1.78559 -3.50879 0.0568095
242 1 2.67724 -12.452 0.0219133 -3.5421 0.128595
243 1 2.44518 -10.6615 1.82941 -3.53279 0.0979057
244 1 4.78874 -13.8392 -3.59309 -3.52992 0.0213396
245 1 4.48253 -12.0973 -1.78559 -3.5342 0.0267849
246 1 4.16181 -10.3166 0.0219143 -3.5426 0.0275381
247 1 3.82443 -8.49826 1.82941 -3.53864 0.0109613
248 1 6.24822 -11.7374 -3.59309 -3.53694 0.00642467
249 1 5.90162 -9.95475 -1.78559 -3.54115 0.00274838
250 1 5.54647 -8.15761 0.0219143 -3.54324 0.00296299
251 1 5.18591 -6.35927 1.82941 -3.54062 0.00700792
252 1 7.64974 -9.59695 -3.59309 -3.54035 0.000224163
253 1 7.29294 -7.80948 -1.78559 -3.5418 0.000732672
254 1 6.93759 -6.02271 0.0219143 -3.54135 0.000629866
255 1 6.5816 -4.24313 1.82941 -3.53865 0.00305877
256 1 9.04927 -7.46021 -3.59309 -3.54054 7.73357e-05
257 1 8.69545 -5.67751 -1.78559 -3.54042 7.42752e-05
258 1 8.33971 -3.89605 0.0219143 -3.53971 0.000570807
259 1 7.97594 -2.11808 1.82941 -3.539 0.00177474
260 1 10.4538 -5.32716 -3.59308 -3.53999 7.76032e-05
261 1 10.0959 -3.54449 -1.78558 -3.53999 0.000164279
262 1 9.73238 -1.7628 0.0219143 -3.53985 0.000422589
263 1 9.36187 0.0150789 1.82941 -3.53956 0.000870602
264 1 11.8526 -3.19107 -3.59308 -3.54006 5.89058e-05
265 1 11.4893 -1.40838 -1.78558 -3.54005 0.000121962
266 1 11.1215 0.372153 0.0219153 -3.53984 0.000321766
267 1 10.749 2.14909 1.82942 -3.53967 0.000555164
268 1 13.2479 -1.05449 -3.59308 -3.5401 6.35111e-05
269 1 12.8821 0.726671 -1.78558 -3.54006 0.000173859
270 1 12.5133 2.50505 0.0219153 -3.54006 0.000408559
271 1 12.1426 4.27912 1.82942 -3.54015 0.000691555
272 1 14.6451 1.07923 -3.59308 -3.54022 0.000158898
273 1 14.2802 2.85709 -1.78558 -3.54025 0.000303602
274 1 13.9155 4.63092 0.0219153 -3.54016 0.000390635
275 1 13.5524 6.39998 1.82942 -3.53993 0.000301935
276 1 16.05 3.20696 -3.59308 -3.54026 0.000182212
277 1 15.6897 4.98037 -1.78558 -3.54013 0.00017488
278 1 15.3307 6.75027 0.0219153 -3.53996 0.000136697
279 1 14.9727 8.5172 1.82942 -3.53988 0.000104608
280 1 17.4644 5.32907 -3.59308 -3.54014 7.88226e-05
281 1 17.108 7.09962 -1.78558 -3.54007 7.33024e-05
282 1 16.7523 8.8678 0.0219154 -3.54006 8.10149e-05
283 1 16.3974 10.6337 1.82942 -3.54012 9.31001e-05
284 1 18.8849 7.44853 -3.59308 -3.54016 4.55083e-05
285 1 18.5312 9.21733 -1.78558 -3.54017 5.63041e-05
286 1 18.1786 10.984 0.0219154 -3.54015 6.02161e-05
287 1 17.8276 12.7485 1.82942 -3.54008 5.03077e-05
288 1 20.3098 9.5665 -3.59308 -3.5402 3.01013e-05
289 1 19.9588 11.3339 -1.78558 -3.54014 3.17921e-05
290 1 19.609 13.0997 0.0219163 -3.54005 4.2138e-05
291 1 19.2602 14.8646 1.82942 -3.53996 7.646e-05
292 1 21.7376 11.6842 -3.59308 -3.54013 2.25478e-05
293 1 21.388 13.4515 -1.78558 -3.54006 4.44021e-05
294 1 21.0385 15.2184 0.0219164 -3.54001 7.34192e-05
295 1 20.6885 16.9856 1.82942 -3.54001 8.9875e-05
296 1 23.1647 13.8041 -3.59308 -3.54009 4.15697e-05
297 1 22.8143 15.5728 -1.78558 -3.54007 5.65847e-05
298 1 22.4629 17.3418 0.0219164 -3.54008 5.79133e-05
299 1 24.5882 15.9276 -3.59308 -3.54012 3.83522e-05
300 1 24.2357 17.6981 -1.78558 -3.54013 3.51465e-05
301 1 26.0074 18.0543 -3.59308 -3.54016 2.07572e-05
302 1 1.89242 -17.8994 0.0219134 -3.45002 0.596346
303 1 1.36701 -16.1141 1.82941 -3.44444 0.66485
304 1 3.59557 -17.6406 -1.78559 -3.54016 0.0780764
305 1 3.25415 -15.854 0.0219134 -3.51734 0.100496
306 1 2.95853 -14.1635 1.82941 -3.50879 0.0568095
307 1 5.37664 -17.3558 -3.59309 -3.54441 0.0164721
308 1 5.08073 -15.5885 -1.78559 -3.53582 0.00832281
309 1 4.78874 -13.8392 0.0219143 -3.52992 0.0213396
310 1 4.48253 -12.0973 1.82941 -3.5342 0.0267849
311 1 6.8778 -15.2809 -3.59309 -3.53838 0.0050927
312 1 6.57365 -13.5117 -1.78559 -3.53616 0.00961576
313 1 6.24822 -11.7374 0.0219143 -3.53694 0.00642467
314 1 5.90162 -9.95475 1.82941 -3.54115 0.00274838
315 1 8.33793 -13.1689 -3.59309 -3.53879 0.00335974
316 1 8.00096 -11.384 -1.78559 -3.53907 0.00120354
317 1 7.64974 -9.59695 0.0219143 -3.54035 0.000224163
318 1 7.29294 -7.80948 1.82941 -3.5418 0.000732672
319 1 9.75386 -11.0317 -3.59309 -3.54015 0.000249156
320 1 9.40313 -9.24492 -1.78559 -3.54032 9.60275e-05
321 1 9.04927 -7.46021 0.0219143 -3.54054 7.73357e-05
322 1 8.69545 -5.67751 1.82941 -3.54042 7.42752e-05
323 1 11.1605 -8.89368 -3.59308 -3.54029 5.08724e-05
324 1 10.8081 -7.10996 -1.78558 -3.54007 2.37516e-05
325 1 10.4538 -5.32716 0.0219153 -3.53999 7.76032e-05
326 1 10.0959 -3.54449 1.82942 -3.53999 0.000164279
327 1 12.5674 -6.75766 -3.59308 -3.54002 4.86971e-05
328 1 12.2118 -4.9744 -1.78558 -3.53997 5.64881e-05
329 1 11.8526 -3.19107 0.0219153 -3.54006 5.89058e-05
330 1 11.4893 -1.40838 1.82942 -3.54005 0.000121962
331 1 13.9705 -4.62036 -3.59308 -3.54007 3.51236e-05
332 1 13.6107 -2.83716 -1.78558 -3.54009 3.12104e-05
333 1 13.2479 -1.05449 0.0219153 -3.5401 6.35111e-05
334 1 12.8821 0.726671 1.82942 -3.54006 0.000173859
335 1 15.3708 -2.48317 -3.59308 -3.54016 3.27768e-05
336 1 15.0089 -0.701271 -1.78558 -3.54018 6.80555e-05
337 1 14.6451 1.07923 0.0219153 -3.54022 0.000158898
338 1 14.2802 2.85709 1.82942 -3.54025 0.000303602
339 1 16.7725 -0.348808 -3.59308 -3.54026 8.27898e-05
340 1 16.4112 1.43029 -1.78558 -3.54029 0.000139195
341 1 16.05 3.20696 0.0219153 -3.54026 0.000182212
342 1 15.6897 4.98037 1.82942 -3.54013 0.00017488
343 1 18.1799 1.78053 -3.59308 -3.5403 9.8402e-05
344 1 17.8217 3.55601 -1.78558 -3.54024 9.45947e-05
345 1 17.4644 5.32907 0.0219154 -3.54014 7.88226e-05
346 1 17.108 7.09962 1.82942 -3.54007 7.33024e-05
347 1 19.5946 3.90502 -3.59308 -3.54023 5.00008e-05
348 1 19.2394 5.67772 -1.78558 -3.54018 4.20105e-05
349 1 18.8849 7.44853 0.0219163 -3.54016 4.55083e-05
350 1 18.5312 9.21733 1.82942 -3.54017 5.63041e-05
351 1 21.0147 6.02661 -3.59308 -3.54022 2.55623e-05
352 1 20.6618 7.79739 -1.78558 -3.54022 2.70792e-05
353 1 20.3098 9.5665 0.0219164 -3.5402 3.01013e-05
354 1 19.9588 11.3339 1.82942 -3.54014 3.17921e-05
355 1 22.4385 8.14659 -3.59308 -3.54023 1.31139e-05
356 1 22.0876 9.916 -1.78558 -3.54019 1.40297e-05
357 1 21.7376 11.6842 0.0219164 -3.54013 2.25478e-05
358 1 21.388 13.4515 1.82942 -3.54006 4.44021e-05
359 1 23.8646 10.2663 -3.59308 -3.54018 9.8277e-06
360 1 23.5147 12.0354 -1.78558 -3.54013 2.25477e-05
361 1 23.1647 13.8041 0.0219164 -3.54009 4.15697e-05
362 1 22.8143 15.5728 1.82942 -3.54007 5.65847e-05
363 1 25.2902 12.3875 -3.59308 -3.54014 2.22667e-05
364 1 24.9396 14.1574 -1.78558 -3.54012 3.33562e-05
365 1 24.5882 15.9276 0.0219164 -3.54012 3.83522e-05
366 1 24.2357 17.6981 1.82942 -3.54013 3.51465e-05
367 1 26.713 14.5114 -3.59308 -3.54015 2.39775e-05
368 1 26.3607 16.2827 -1.78558 -3.54015 2.417e-05
369 1 26.0074 18.0543 0.0219164 -3.54016 2.07572e-05
370 1 28.1323 16.6379 -3.59308 -3.54018 1.45725e-05
371 1 27.7783 18.4103 -1.78558 -3.54018 1.19797e-05
372 1 3.59557 -17.6406 1.82941 -3.54016 0.0780764
373 1 5.37664 -17.3558 0.0219143 -3.54441 0.0164721
374 1 5.08073 -15.5885 1.82941 -3.53582 0.00832281
375 1 7.17919 -17.0469 -1.78559 -3.54051 0.00315483
376 1 6.8778 -15.2809 0.0219143 -3.53838 0.0050927
377 1 6.57365 -13.5117 1.82941 -3.53616 0.00961576
378 1 8.97596 -16.7144 -3.59309 -3.53909 0.00217527
379 1 8.66013 -14.9467 -1.78559 -3.53884 0.00414076
380 1 8.33793 -13.1689 0.0219143 -3.53879 0.00335974
381 1 8.00096 -11.384 1.82941 -3.53907 0.00120354
382 1 10.4333 -14.5968 -3.59309 -3.53943 0.00204835
383 1 10.0976 -12.8173 -1.78559 -3.5399 0.00110871
384 1 9.75386 -11.0317 0.0219143 -3.54015 0.000249156
385 1 9.40313 -9.24492 1.82941 -3.54032 9.60275e-05
386 1 11.8586 -12.4613 -3.59308 -3.54028 0.000407821
387 1 11.5109 -10.6782 -1.78558 -3.54043 0.000150709
388 1 11.1605 -8.89368 0.0219153 -3.54029 5.08724e-05
389 1 10.8081 -7.10996 1.82942 -3.54007 2.37516e-05
390 1 13.2718 -10.3229 -3.59308 -3.54038 0.000118818
391 1 12.9204 -8.54063 -1.78558 -3.54022 6.51065e-05
392 1 12.5674 -6.75766 0.0219153 -3.54002 4.86971e-05
393 1 12.2118 -4.9744 1.82942 -3.53997 5.64881e-05
394 1 14.682 -8.18528 -3.59308 -3.54019 7.26932e-05
395 1 14.3274 -6.40329 -1.78558 -3.5401 5.28534e-05
396 1 13.9705 -4.62036 0.0219153 -3.54007 3.51236e-05
397 1 13.6107 -2.83716 1.82942 -3.54009 3.12104e-05
398 1 16.0887 -6.04745 -3.59308 -3.54017 4.41285e-05
399 1 15.7307 -4.26551 -1.78558 -3.54016 3.00914e-05
400 1 15.3708 -2.48317 0.0219153 -3.54016 3.27768e-05
401 1 15.0089 -0.701271 1.82942 -3.54018 6.80555e-05
402 1 17.493 -3.91025 -3.59308 -3.54022 3.37245e-05
403 1 17.1333 -2.12931 -1.78558 -3.54023 4.64585e-05
404 1 16.7725 -0.348808 0.0219154 -3.54026 8.27898e-05
405 1 16.4112 1.43029 1.82942 -3.54029 0.000139195
406 1 18.8983 -1.77569 -3.59308 -3.54029 5.67799e-05
407 1 18.539 0.00306626 -1.78558 -3.54031 8.1045e-05
408 1 18.1799 1.78053 0.0219154 -3.5403 9.8402e-05
409 1 17.8217 3.55601 1.82942 -3.54024 9.45947e-05
410 1 20.3079 0.354657 -3.59308 -3.54031 6.44317e-05
411 1 19.9508 2.13058 -1.78558 -3.54028 6.15831e-05
412 1 19.5946 3.90502 0.0219163 -3.54023 5.00008e-05
413 1 19.2394 5.67772 1.82942 -3.54018 4.20105e-05
414 1 21.7231 2.48084 -3.59308 -3.54027 3.8227e-05
415 1 21.3684 4.25436 -1.78558 -3.54024 2.96384e-05
416 1 21.0147 6.02661 0.0219164 -3.54022 2.55623e-05
417 1 20.6618 7.79739 1.82942 -3.54022 2.70792e-05
418 1 23.1429 4.60418 -3.59308 -3.54025 1.86408e-05
419 1 22.7903 6.37595 -1.78558 -3.54024 1.48851e-05
420 1 22.4385 8.14659 0.0219164 -3.54023 1.31139e-05
421 1 22.0876 9.916 1.82942 -3.54019 1.40297e-05
422 1 24.566 6.72591 -3.59308 -3.54024 7.36901e-06
423 1 24.2149 8.49649 -1.78558 -3.54022 5.89564e-06
424 1 23.8646 10.2663 0.0219164 -3.54018 9.8277e-06
425 1 23.5147 12.0354 1.82942 -3.54013 2.25477e-05
426 1 25.9908 8.84727 -3.59308 -3.5402 4.73738e-06
427 1 25.6405 10.6175 -1.78558 -3.54017 1.11004e-05
428 1 25.2902 12.3875 0.0219164 -3.54014 2.22667e-05
429 1 24.9396 14.1574 1.82942 -3.54012 3.33562e-05
430 1 27.4153 10.9697 -3.59308 -3.54017 1.24253e-05
431 1 27.0644 12.7405 -1.78558 -3.54016 1.94599e-05
432 1 26.713 14.5114 0.0219164 -3.54015 2.39775e-05
433 1 26.3607 16.2827 1.82942 -3.54015 2.417e-05
434 1 28.8376 13.0942 -3.59308 -3.54017 1.52201e-05
435 1 28.4853 14.8659 -1.78558 -3.54017 1.59738e-05
436 1 28.1323 16.6379 0.0219164 -3.54018 1.45725e-05
437 1 27.7783 18.4103 1.82942 -3.54018 1.19797e-05
438 1 30.257 15.2207 -3.59308 -3.54019 1.00523e-05
439 1 29.9033 16.9933 -1.78558 -3.54019 8.56298e-06
440 1 31.674 17.3488 -3.59308 -3.5402 5.04363e-06
441 1 7.17919 -17.0469 1.82941 -3.54051 0.00315483
442 1 8.97596 -16.7144 0.0219143 -3.53909 0.00217527
443 1 8.66013 -14.9467 1.82941 -3.53884 0.00414076
444 1 11.092 -18.1304 -3.59308 -3.53929 0.000650004
445 1 10.763 -16.3675 -1.78559 -3.53908 0.00172777
446 1 10.4333 -14.5968 0.0219143 -3.53943 0.00204835
447 1 10.0976 -12.8173 1.82941 -3.5399 0.00110871
448 1 12.5423 -16.0123 -3.59308 -3.53948 0.000970887
449 1 12.2025 -14.24 -1.78558 -3.53987 0.000797746
450 1 11.8586 -12.4613 0.0219153 -3.54028 0.000407821
451 1 11.5109 -10.6782 1.82942 -3.54043 0.000150709
452 1 13.9707 -13.8805 -3.59308 -3.54011 0.000294838
453 1 13.6221 -12.1033 -1.78558 -3.54033 0.000183741
454 1 13.2718 -10.3229 0.0219153 -3.54038 0.000118818
455 1 12.9204 -8.54063 1.82942 -3.54022 6.51065e-05
456 1 15.3875 -11.7442 -3.59308 -3.54028 9.59673e-05
457 1 15.0352 -9.96574 -1.78558 -3.54027 8.78753e-05
458 1 14.682 -8.18528 0.0219153 -3.54019 7.26932e-05
459 1 14.3274 -6.40329 1.82942 -3.5401 5.28534e-05
460 1 16.7999 -9.60734 -3.59308 -3.54022 5.98113e-05
461 1 16.4449 -7.82824 -1.78558 -3.54019 5.7785e-05
462 1 16.0887 -6.04745 0.0219153 -3.54017 4.41285e-05
463 1 15.7307 -4.26551 1.82942 -3.54016 3.00914e-05
464 1 18.2091 -7.4703 -3.59308 -3.54021 3.76809e-05
465 1 17.8516 -5.6908 -1.78558 -3.54021 3.46132e-05
466 1 17.493 -3.91025 0.0219154 -3.54022 3.37245e-05
467 1 17.1333 -2.12931 1.82942 -3.54023 4.64585e-05
468 1 19.6163 -5.33393 -3.59308 -3.54025 2.89955e-05
469 1 19.2575 -3.55493 -1.78558 -3.54027 3.89125e-05
470 1 18.8983 -1.77569 0.0219163 -3.54029 5.67799e-05
471 1 18.539 0.00306626 1.82942 -3.54031 8.1045e-05
472 1 21.0242 -3.19982 -3.59308 -3.54029 4.06106e-05
473 1 20.6658 -1.42233 -1.78558 -3.54031 5.53271e-05
474 1 20.3079 0.354657 0.0219164 -3.54031 6.44317e-05
475 1 19.9508 2.13058 1.82942 -3.54028 6.15831e-05
476 1 22.4355 -1.06918 -3.59308 -3.5403 4.50599e-05
477 1 22.0788 0.706237 -1.78558 -3.54029 4.53488e-05
478 1 21.7231 2.48084 0.0219164 -3.54027 3.8227e-05
479 1 21.3684 4.25436 1.82942 -3.54024 2.96384e-05
480 1 23.8511 1.05797 -3.59308 -3.54028 3.02232e-05
481 1 23.4965 2.83147 -1.78558 -3.54026 2.44081e-05
482 1 23.1429 4.60418 0.0219164 -3.54025 1.86408e-05
483 1 22.7903 6.37595 1.82942 -3.54024 1.48851e-05
484 1 25.2707 3.18253 -3.59308 -3.54026 1.5252e-05
485 1 24.9179 4.95457 -1.78558 -3.54025 1.09709e-05
486 1 24.566 6.72591 0.0219164 -3.54024 7.36901e-06
487 1 24.2149 8.49649 1.82942 -3.54022 5.89564e-06
488 1 26.693 5.30557 -3.59308 -3.54024 5.67996e-06
489 1 26.3416 7.07665 -1.78558 -3.54023 3.67406e-06
490 1 25.9908 8.84727 0.0219164 -3.5402 4.73738e-06
491 1 25.6405 10.6175 1.82942 -3.54017 1.11004e-05
492 1 28.1168 7.42821 -3.59308 -3.54021 3.09433e-06
493 1 27.766 9.19899 -1.78558 -3.54019 6.21724e-06
494 1 27.4153 10.9697 0.0219164 -3.54017 1.24253e-05
495 1 27.0644 12.7405 1.82942 -3.54016 1.94599e-05
496 1 29.5404 9.55159 -3.59308 -3.54019 7.64321e-06
497 1 29.1892 11.3228 -1.78558 -3.54018 1.20661e-05
498 1 28.8376 13.0942 0.0219165 -3.54017 1.52201e-05
499 1 28.4853 14.8659 1.82942 -3.54017 1.59738e-05
500 1 30.9623 11.6765 -3.59308 -3.54019 1.02515e-05
501 1 30.6099 13.4485 -1.78558 -3.54019 1.08138e-05
502 1 30.257 15.2207 0.0219165 -3.54019 1.00523e-05
503 1 29.9033 16.9933 1.82942 -3.54019 8.56298e-06
504 1 32.3818 13.8031 -3.59308 -3.54019 6.99867e-06
505 1 32.0282 15.5758 -1.78558 -3.5402 6.13927e-06
506 1 31.674 17.3488 0.0219165 -3.5402 5.04363e-06
507 1 33.7992 15.931 -3.59308 -3.54021 3.95813e-06
508 1 33.4446 17.7042 -1.78558 -3.54022 3.03101e-06
509 1 35.2151 18.0596 -3.59308 -3.54023 1.66389e-06
510 1 11.092 -18.1304 0.0219153 -3.53929 0.000650004
511 1 10.763 -16.3675 1.82941 -3.53908 0.00172777
512 1 12.8796 -17.7781 -1.78558 -3.53939 0.000656157
513 1 12.5423 -16.0123 0.0219153 -3.53948 0.000970887
514 1 12.2025 -14.24 1.82942 -3.53987 0.000797746
515 1 14.6609 -17.4212 -3.59308 -3.53966 0.000449442
516 1 14.317 -15.6532 -1.78558 -3.53984 0.000437812
517 1 13.9707 -13.8805 0.0219153 -3.54011 0.000294838
518 1 13.6221 -12.1033 1.82942 -3.54033 0.000183741
519 1 16.0894 -15.2928 -3.59308 -3.54005 0.000181049
520 1 15.7391 -13.52 -1.78558 -3.5402 0.000119355
521 1 15.3875 -11.7442 0.0219153 -3.54028 9.59673e-05
522 1 15.0352 -9.96574 1.82942 -3.54027 8.78753e-05
523 1 17.5078 -13.1594 -3.59308 -3.54021 5.5648e-05
524 1 17.1542 -11.3844 -1.78558 -3.54023 5.44579e-05
525 1 16.7999 -9.60734 0.0219154 -3.54022 5.98113e-05
526 1 16.4449 -7.82824 1.82942 -3.54019 5.7785e-05
527 1 18.9216 -11.0245 -3.59308 -3.5402 3.09675e-05
528 1 18.5657 -9.24828 -1.78558 -3.5402 3.60413e-05
529 1 18.2091 -7.4703 0.0219154 -3.54021 3.76809e-05
530 1 17.8516 -5.6908 1.82942 -3.54021 3.46132e-05
531 1 20.3323 -8.88914 -3.59308 -3.54021 1.93469e-05
532 1 19.9746 -7.11213 -1.78558 -3.54023 2.34183e-05
533 1 19.6163 -5.33393 0.0219163 -3.54025 2.89955e-05
534 1 19.2575 -3.55493 1.82942 -3.54027 3.89125e-05
535 1 21.7414 -6.75421 -3.59308 -3.54024 1.65679e-05
536 1 21.3829 -4.97727 -1.78558 -3.54027 2.6789e-05
537 1 21.0242 -3.19982 0.0219164 -3.54029 4.06106e-05
538 1 20.6658 -1.42233 1.82942 -3.54031 5.53271e-05
539 1 23.1511 -4.62106 -3.59308 -3.54027 2.52109e-05
540 1 22.793 -2.84506 -1.78558 -3.54029 3.69086e-05
541 1 22.4355 -1.06918 0.0219164 -3.5403 4.50599e-05
542 1 22.0788 0.706237 1.82942 -3.54029 4.53488e-05
543 1 24.5635 -2.49067 -3.59308 -3.54028 2.97345e-05
544 1 24.2068 -0.716138 -1.78558 -3.54028 3.27078e-05
545 1 23.8511 1.05797 0.0219164 -3.54028 3.02232e-05
546 1 23.4965 2.83147 1.82942 -3.54026 2.44081e-05
547 1 25.9794 -0.363149 -3.59308 -3.54027 2.21141e-05
548 1 25.6245 1.40993 -1.78558 -3.54026 1.94146e-05
549 1 25.2707 3.18253 0.0219164 -3.54026 1.5252e-05
550 1 24.9179 4.95457 1.82942 -3.54025 1.09709e-05
551 1 27.3986 1.76213 -3.59308 -3.54025 1.16858e-05
552 1 27.0454 3.53405 -1.78558 -3.54025 8.67723e-06
553 1 26.693 5.30557 0.0219164 -3.54024 5.67996e-06
554 1 26.3416 7.07665 1.82942 -3.54023 3.67406e-06
555 1 28.8202 3.88605 -3.59308 -3.54024 4.37928e-06
556 1 28.4682 5.65725 -1.78558 -3.54023 2.95634e-06
557 1 28.1168 7.42821 0.0219164 -3.54021 3.09433e-06
558 1 27.766 9.19899 1.82942 -3.54019 6.21724e-06
559 1 30.2431 6.00957 -3.59308 -3.54021 2.19055e-06
560 1 29.8917 7.78056 -1.78558 -3.5402 3.92884e-06
561 1 29.5404 9.55159 0.0219165 -3.54019 7.64321e-06
562 1 29.1892 11.3228 1.82942 -3.54018 1.20661e-05
563 1 31.6659 8.13363 -3.59308 -3.5402 4.8927e-06
564 1 31.3142 9.90493 -1.78558 -3.54019 8.04485e-06
565 1 30.9623 11.6765 0.0219165 -3.54019 1.02515e-05
566 1 30.6099 13.4485 1.82942 -3.54019 1.08138e-05
567 1 33.0873 10.2589 -3.59308 -3.5402 7.32569e-06
568 1 32.7348 12.0308 -1.78558 -3.54019 7.57723e-06
569 1 32.3818 13.8031 0.0219165 -3.54019 6.99867e-06
570 1 32.0282 15.5758 1.82942 -3.5402 6.13927e-06
571 1 34.5068 12.3855 -3.59308 -3.54019 4.68667e-06
572 1 34.1533 14.1581 -1.78558 -3.5402 4.29157e-06
573 1 33.7992 15.931 0.0219165 -3.54021 3.95813e-06
574 1 33.4446 17.7042 1.82942 -3.54022 3.03101e-06
575 1 35.9246 14.5132 -3.59308 -3.54021 3.11641e-06
576 1 35.5702 16.2862 -1.78558 -3.54022 2.97334e-06
577 1 35.2151 18.0596 0.0219165 -3.54023 1.66389e-06