ITEM: TIMESTEP
0
ITEM: NUMBER OF ATOMS
2504
ITEM: BOX BOUNDS xy xz yz mm pp pp
-5.5498871899999997e+01 5.5498871899999997e+01 0.0000000000000000e+00
-1.8432957300000002e+01 1.8432957300000002e+01 0.0000000000000000e+00
-3.6150000000000002e+00 3.6150000000000002e+00 0.0000000000000000e+00
ITEM: ATOMS id type x y z c_eng c_csym
1 1 0.628725 16.7914 -3.59546 -3.43704 3.47261
2 1 0.294401 -18.2529 -1.78796 -3.27815 8.97057
3 1 0.968219 13.067 -3.59546 -3.50611 0.282092
4 1 0.832601 14.8287 -1.78796 -3.50399 0.580183
5 1 0.628725 16.7914 0.019544 -3.43704 3.47261
6 1 0.294401 -18.2529 1.82704 -3.27815 8.97057
7 1 2.56117 15.1886 -3.59546 -3.53961 0.117631
8 1 2.27769 17.0334 -1.78796 -3.51755 0.0895297
9 1 3.96146 17.3856 -3.59546 -3.54329 0.0314444
10 1 0.459311 7.38015 -3.59546 -3.52199 0.317151
11 1 0.120722 9.11106 -1.78796 -3.4343 1.01359
12 1 1.77182 9.58207 -3.59546 -3.51851 0.117159
13 1 1.29882 11.3548 -1.78796 -3.52002 0.246352
14 1 0.968219 13.067 0.019544 -3.50611 0.282092
15 1 0.832601 14.8287 1.82704 -3.50399 0.580183
16 1 3.15937 11.6869 -3.59546 -3.52911 0.0275787
17 1 2.85998 13.4078 -1.78796 -3.51916 0.0582305
18 1 2.56117 15.1886 0.019544 -3.53961 0.117631
19 1 2.27769 17.0334 1.82704 -3.51755 0.0895297
20 1 4.65707 13.7797 -3.59546 -3.53386 0.0126942
21 1 4.31842 15.5582 -1.78796 -3.53758 0.0190823
22 1 3.96146 17.3856 0.0195441 -3.54329 0.0314444
23 1 6.0732 15.9303 -3.59546 -3.5412 0.00403204
24 1 5.71396 17.7211 -1.78796 -3.54508 0.017224
25 1 7.50282 18.0549 -3.59546 -3.54189 0.00478926
26 1 1.13222 3.78306 -3.59546 -3.54432 0.0422998
27 1 0.798753 5.57832 -1.78796 -3.54628 0.0131026
28 1 0.459311 7.38015 0.019544 -3.52199 0.317007
29 1 0.120722 9.11106 1.82704 -3.4353 1.01359
30 1 2.55601 5.94678 -3.59546 -3.54081 0.00997914
31 1 2.2077 7.73906 -1.78796 -3.52477 0.0366192
32 1 1.77182 9.58207 0.0195441 -3.51851 0.117159
33 1 1.29882 11.3548 1.82704 -3.52006 0.246352
34 1 3.92334 8.13475 -3.59546 -3.54195 0.0115337
35 1 3.5221 9.92916 -1.78796 -3.54286 0.0461544
36 1 3.15937 11.6869 0.0195441 -3.52911 0.0275787
37 1 2.85998 13.4078 1.82704 -3.51916 0.0582305
38 1 5.32073 10.2683 -3.59546 -3.54111 0.00715917
39 1 4.98695 12.0215 -1.78796 -3.53431 0.00521311
40 1 4.65707 13.7797 0.0195449 -3.53386 0.0126942
41 1 4.31842 15.5582 1.82704 -3.53758 0.0190823
42 1 6.77999 12.3768 -3.59546 -3.53764 0.00243664
43 1 6.43291 14.1468 -1.78796 -3.53792 0.00205432
44 1 6.0732 15.9303 0.019545 -3.5412 0.00403204
45 1 5.71396 17.7211 1.82704 -3.54508 0.017224
46 1 8.20491 14.5097 -3.59546 -3.54048 0.000540239
47 1 7.84789 16.2841 -1.78796 -3.54166 0.00333066
48 1 7.50282 18.0549 0.019545 -3.54189 0.00478926
49 1 9.63649 16.631 -3.59545 -3.5408 0.00126504
50 1 9.30015 18.3931 -1.78795 -3.53985 0.000800244
51 1 0.482401 -1.86148 -3.59546 -3.52523 0.169848
52 1 0.156295 -0.154624 -1.78796 -3.47436 0.409817
53 1 1.9144 0.262994 -3.59546 -3.53336 0.0217164
54 1 1.51688 2.01833 -1.78796 -3.53644 0.0178737
55 1 1.13222 3.78306 0.019544 -3.54432 0.0421566
56 1 0.798753 5.57832 1.82704 -3.54527 0.0131026
57 1 3.29305 2.41706 -3.59546 -3.53763 0.00151918
58 1 2.9183 4.17502 -1.78796 -3.53954 0.00265129
59 1 2.55601 5.94678 0.019544 -3.54081 0.00997914
60 1 2.2077 7.73906 1.82704 -3.52493 0.0366192
61 1 4.69256 4.56335 -3.59546 -3.53834 0.000936569
62 1 4.31743 6.3359 -1.78796 -3.53772 0.00435566
63 1 3.92334 8.13475 0.0195441 -3.54195 0.0115337
64 1 3.5221 9.92916 1.82704 -3.54286 0.0461544
65 1 6.07287 6.72307 -3.59546 -3.54102 0.00245761
66 1 5.68622 8.50053 -1.78796 -3.54321 0.0100115
67 1 5.32073 10.2683 0.019545 -3.54111 0.00715917
68 1 4.98695 12.0215 1.82704 -3.53431 0.00521311
69 1 7.47466 8.85697 -3.59546 -3.54086 0.00248061
70 1 7.12251 10.6157 -1.78796 -3.53882 0.000753292
71 1 6.77999 12.3768 0.019545 -3.53764 0.00243664
72 1 6.43291 14.1468 1.82704 -3.53792 0.00205432
73 1 8.91334 10.9728 -3.59545 -3.53901 0.000413874
74 1 8.5612 12.7378 -1.78795 -3.53935 0.000452719
75 1 8.20491 14.5097 0.019545 -3.54048 0.000540239
76 1 7.84789 16.2841 1.82704 -3.54166 0.00333066
77 1 10.3409 13.0978 -3.59545 -3.54032 0.000135951
78 1 9.98539 14.8653 -1.78795 -3.54093 0.00084403
79 1 9.63649 16.631 0.019545 -3.5408 0.00126504
80 1 9.30015 18.3931 1.82705 -3.53985 0.000800244
81 1 11.7726 15.2172 -3.59545 -3.54051 0.000389811
82 1 11.4288 16.9785 -1.78795 -3.54 0.000250202
83 1 13.2183 17.3295 -3.59545 -3.53971 0.000189427
84 1 1.19367 -5.38383 -3.59546 -3.54013 0.0921231
85 1 0.827551 -3.63678 -1.78796 -3.55088 0.0413878
86 1 0.482401 -1.86148 0.019544 -3.52523 0.169705
87 1 0.156295 -0.154624 1.82704 -3.47436 0.409817
88 1 2.62561 -3.24121 -3.59546 -3.54201 0.00944133
89 1 2.27994 -1.50455 -1.78796 -3.5345 0.011766
90 1 1.9144 0.262994 0.0195441 -3.53336 0.0216449
91 1 1.51688 2.01833 1.82704 -3.53648 0.0178737
92 1 4.05377 -1.10697 -3.59546 -3.5404 0.00247798
93 1 3.67561 0.652032 -1.78796 -3.54008 0.00044272
94 1 3.29305 2.41706 0.0195441 -3.53763 0.00151918
95 1 2.9183 4.17502 1.82704 -3.5397 0.00265129
96 1 5.44486 1.03827 -3.59546 -3.54095 0.00034473
97 1 5.06746 2.79918 -1.78796 -3.53976 0.000129378
98 1 4.69256 4.56335 0.0195449 -3.53834 0.000936569
99 1 4.31743 6.3359 1.82704 -3.53772 0.00435566
100 1 6.83863 3.17896 -3.59546 -3.53959 0.000309163
101 1 6.45939 4.94696 -1.78796 -3.53917 0.000460004
102 1 6.07287 6.72307 0.019545 -3.54102 0.00245761
103 1 5.68622 8.50053 1.82704 -3.54321 0.0100115
104 1 8.22556 5.32285 -3.59546 -3.54044 0.000844995
105 1 7.84489 7.09242 -1.78796 -3.54129 0.00268498
106 1 7.47466 8.85697 0.019545 -3.54086 0.00248061
107 1 7.12251 10.6157 1.82704 -3.53882 0.000753292
108 1 9.62793 7.45219 -3.59545 -3.54041 0.00100135
109 1 9.26671 9.21263 -1.78795 -3.53956 0.000259742
110 1 8.91334 10.9728 0.019545 -3.53901 0.000413874
111 1 8.5612 12.7378 1.82705 -3.53935 0.000452719
112 1 11.0541 9.56961 -3.59545 -3.53949 7.61123e-05
113 1 10.6976 11.3322 -1.78795 -3.53965 6.76727e-05
114 1 10.3409 13.0978 0.019545 -3.54032 0.000135951
115 1 9.98539 14.8653 1.82705 -3.54093 0.00084403
116 1 12.4799 11.6899 -3.59545 -3.5401 5.01021e-05
117 1 12.1241 13.454 -1.78795 -3.54048 0.00023967
118 1 11.7726 15.2172 0.0195459 -3.54051 0.000389811
119 1 11.4288 16.9785 1.82705 -3.54 0.000250202
120 1 13.9097 13.8074 -3.59545 -3.54028 0.000132895
121 1 13.5614 15.5687 -1.78795 -3.54007 9.13421e-05
122 1 13.2183 17.3295 0.019546 -3.53971 0.000189427
123 1 15.3479 15.9216 -3.59545 -3.53989 7.7232e-05
124 1 15.0031 17.6839 -1.78795 -3.53973 0.000224688
125 1 16.7834 18.0405 -3.59545 -3.53986 0.000177485
126 1 0.720843 -10.8886 -3.59546 -3.46494 2.7077
127 1 0.457554 -9.13057 -1.78796 -3.3012 8.06426
128 1 2.11359 -8.80319 -3.59546 -3.4982 0.28913
129 1 1.67015 -7.04415 -1.78796 -3.4956 0.270949
130 1 1.19367 -5.38383 0.019544 -3.54014 0.0919799
131 1 0.827551 -3.63678 1.82704 -3.54999 0.0413878
132 1 3.42856 -6.69006 -3.59546 -3.5295 0.0606678
133 1 3.02245 -4.95047 -1.78796 -3.53031 0.0315109
134 1 2.62561 -3.24121 0.019544 -3.54201 0.00944133
135 1 2.27994 -1.50455 1.82704 -3.53475 0.011766
136 1 4.80797 -4.59043 -3.59546 -3.53535 0.0151258
137 1 4.43191 -2.8488 -1.78796 -3.53525 0.00684386
138 1 4.05377 -1.10697 0.0195449 -3.5404 0.00247798
139 1 3.67561 0.652032 1.82704 -3.54016 0.00044272
140 1 6.20654 -2.47798 -3.59546 -3.53739 0.00473162
141 1 5.82703 -0.719701 -1.78796 -3.53937 0.00160938
142 1 5.44486 1.03827 0.019545 -3.54095 0.00034473
143 1 5.06746 2.79918 1.82704 -3.53976 0.000129378
144 1 7.59458 -0.348919 -3.59546 -3.53932 0.00155363
145 1 7.21667 1.41539 -1.78796 -3.5397 0.000657654
146 1 6.83863 3.17896 0.019545 -3.53959 0.000309163
147 1 6.45939 4.94696 1.82704 -3.53917 0.000460004
148 1 8.9843 1.78362 -3.59545 -3.53938 0.000677326
149 1 8.60669 3.55281 -1.78795 -3.5396 0.000410251
150 1 8.22556 5.32285 0.019545 -3.54044 0.000844995
151 1 7.84489 7.09242 1.82704 -3.54129 0.00268498
152 1 10.3743 3.91791 -3.59545 -3.54001 0.000629316
153 1 9.99872 5.68735 -1.78795 -3.5405 0.00106301
154 1 9.62793 7.45219 0.019545 -3.54041 0.00100135
155 1 9.26671 9.21263 1.82705 -3.53956 0.000259742
156 1 11.7766 6.04386 -3.59545 -3.54017 0.000592825
157 1 11.4129 7.80797 -1.78795 -3.53982 0.000252772
158 1 11.0541 9.56961 0.0195459 -3.53949 7.61123e-05
159 1 10.6976 11.3322 1.82705 -3.53965 6.76727e-05
160 1 13.1954 8.16197 -3.59545 -3.53975 0.000115829
161 1 12.8373 9.92592 -1.78795 -3.53977 4.8447e-05
162 1 12.4799 11.6899 0.0195459 -3.5401 5.01021e-05
163 1 12.1241 13.454 1.82705 -3.54048 0.00023967
164 1 14.6186 10.2801 -3.59545 -3.54003 6.95596e-05
165 1 14.2628 12.0445 -1.78795 -3.54022 0.0001027
166 1 13.9097 13.8074 0.019546 -3.54028 0.000132895
167 1 13.5614 15.5687 1.82705 -3.54007 9.13421e-05
168 1 16.0459 12.3969 -3.59545 -3.54017 7.41992e-05
169 1 15.6953 14.1597 -1.78795 -3.54008 4.92031e-05
170 1 15.3479 15.9216 0.019546 -3.53989 7.7232e-05
171 1 15.0031 17.6839 1.82705 -3.53973 0.000224688
172 1 17.4787 14.5123 -3.59545 -3.53999 4.84917e-05
173 1 17.1307 16.2759 -1.78795 -3.53988 0.000106495
174 1 16.7834 18.0405 0.0195461 -3.53986 0.000177485
175 1 18.91 16.6312 -3.59545 -3.53995 9.84784e-05
176 1 18.5603 18.398 -1.78795 -3.53999 0.000110999
177 1 1.00208 -14.516 -3.59546 -3.48811 0.453446
178 1 0.894748 -12.7745 -1.78796 -3.52686 0.442214
179 1 0.720843 -10.8886 0.019544 -3.46494 2.7077
180 1 0.457554 -9.13057 1.82704 -3.29906 8.06426
181 1 2.67058 -12.4564 -3.59546 -3.54243 0.12725
182 1 2.42951 -10.6621 -1.78796 -3.53204 0.0927107
183 1 2.11359 -8.80319 0.0195441 -3.4982 0.289059
184 1 1.67015 -7.04415 1.82704 -3.49616 0.270949
185 1 4.14394 -10.3137 -3.59546 -3.54349 0.0241059
186 1 3.80265 -8.49637 -1.78796 -3.53942 0.0110423
187 1 3.42856 -6.69006 0.0195441 -3.5295 0.0606678
188 1 3.02245 -4.95047 1.82704 -3.53046 0.0315109
189 1 5.53136 -8.15793 -3.59546 -3.54353 0.00278956
190 1 5.175 -6.36352 -1.78796 -3.54024 0.00560342
191 1 4.80797 -4.59043 0.0195449 -3.53535 0.0151258
192 1 4.43191 -2.8488 1.82704 -3.53525 0.00684386
193 1 6.92905 -6.02563 -3.59546 -3.54109 0.000384701
194 1 6.57349 -4.24626 -1.78796 -3.53863 0.00274354
195 1 6.20654 -2.47798 0.019545 -3.53739 0.00473162
196 1 5.82703 -0.719701 1.82704 -3.53937 0.00160938
197 1 8.3316 -3.89778 -3.59546 -3.53984 0.000447971
198 1 7.96778 -2.11982 -1.78796 -3.53927 0.00141134
199 1 7.59458 -0.348919 0.019545 -3.53932 0.00155363
200 1 7.21667 1.41539 1.82704 -3.5397 0.000657654
201 1 9.72621 -1.76509 -3.59545 -3.53997 0.00033204
202 1 9.35783 0.0117727 -1.78795 -3.53959 0.000703683
203 1 8.9843 1.78362 0.019545 -3.53938 0.000677326
204 1 8.60669 3.55281 1.82705 -3.5396 0.000410251
205 1 11.1192 0.368424 -3.59545 -3.53984 0.000252174
206 1 10.7488 2.14482 -1.78795 -3.5397 0.000430117
207 1 10.3743 3.91791 0.0195459 -3.54001 0.000629316
208 1 9.99872 5.68735 1.82705 -3.5405 0.00106301
209 1 12.5137 2.50084 -3.59545 -3.5401 0.000327943
210 1 12.1445 4.27487 -1.78795 -3.54021 0.000584052
211 1 11.7766 6.04386 0.0195459 -3.54017 0.000592825
212 1 11.4129 7.80797 1.82705 -3.53982 0.000252772
213 1 13.9174 4.62693 -3.59545 -3.5402 0.000327236
214 1 13.5552 6.39627 -1.78795 -3.53997 0.000244018
215 1 13.1954 8.16197 0.019546 -3.53975 0.000115829
216 1 12.8373 9.92592 1.82705 -3.53977 4.8447e-05
217 1 15.333 6.74696 -3.59545 -3.53998 0.000106613
218 1 14.9755 8.51445 -1.78795 -3.53992 8.01053e-05
219 1 14.6186 10.2801 0.019546 -3.54003 6.95596e-05
220 1 14.2628 12.0445 1.82705 -3.54022 0.0001027
221 1 16.7542 8.86552 -3.59545 -3.54009 6.32666e-05
222 1 16.3993 10.6322 -1.78795 -3.54015 7.52764e-05
223 1 16.0459 12.3969 0.019546 -3.54017 7.41992e-05
224 1 15.6953 14.1597 1.82705 -3.54008 4.92031e-05
225 1 18.1795 10.9829 -3.59545 -3.54017 4.88811e-05
226 1 17.8282 12.7483 -1.78795 -3.5401 4.06752e-05
227 1 17.4787 14.5123 0.0195461 -3.53999 4.84917e-05
228 1 17.1307 16.2759 1.82705 -3.53988 0.000106495
229 1 19.6086 13.0998 -3.59545 -3.54007 3.38748e-05
230 1 19.2592 14.8655 -1.78795 -3.53999 6.19755e-05
231 1 18.91 16.6312 0.0195461 -3.53995 9.84784e-05
232 1 18.5603 18.398 1.82705 -3.53999 0.000110999
233 1 21.0369 15.2194 -3.59545 -3.54003 5.88451e-05
234 1 20.6863 16.9871 -1.78795 -3.54004 7.12404e-05
235 1 22.4606 17.3432 -3.59545 -3.5401 4.57168e-05
236 1 1.89329 -17.909 -3.59546 -3.45122 0.606339
237 1 1.37048 -16.1276 -1.78796 -3.44309 0.670132
238 1 1.00208 -14.516 0.019544 -3.48811 0.453446
239 1 0.894748 -12.7745 1.82704 -3.52686 0.442214
240 1 3.25651 -15.8621 -3.59546 -3.51743 0.0964101
241 1 2.9588 -14.1713 -1.78796 -3.50889 0.0599705
242 1 2.67058 -12.4564 0.019544 -3.54243 0.12725
243 1 2.42951 -10.6621 1.82704 -3.53212 0.0927107
244 1 4.78422 -13.8407 -3.59546 -3.53023 0.0207889
245 1 4.47138 -12.0964 -1.78796 -3.5348 0.0236894
246 1 4.14394 -10.3137 0.0195449 -3.54349 0.0241059
247 1 3.80265 -8.49637 1.82704 -3.53949 0.0110423
248 1 6.23587 -11.7341 -3.59546 -3.53745 0.00478697
249 1 5.88607 -9.95223 -1.78796 -3.54171 0.00211299
250 1 5.53136 -8.15793 0.019545 -3.54353 0.00278956
251 1 5.175 -6.36352 1.82704 -3.54024 0.00560342
252 1 7.63807 -9.59528 -3.59546 -3.54051 0.000156811
253 1 7.28265 -7.81049 -1.78796 -3.54163 0.00051909
254 1 6.92905 -6.02563 0.019545 -3.54109 0.000384701
255 1 6.57349 -4.24626 1.82704 -3.53863 0.00274354
256 1 9.04138 -7.46064 -3.59545 -3.54041 3.10989e-05
257 1 8.68776 -5.67899 -1.78795 -3.54037 7.8583e-05
258 1 8.3316 -3.89778 0.019545 -3.53984 0.000447971
259 1 7.96778 -2.11982 1.82704 -3.53927 0.00141134
260 1 10.4469 -5.32773 -3.59545 -3.54005 6.07882e-05
261 1 10.089 -3.54584 -1.78795 -3.54013 0.000106535
262 1 9.72621 -1.76509 0.019545 -3.53997 0.00033204
263 1 9.35783 0.0117727 1.82705 -3.53959 0.000703683
264 1 11.8474 -3.19246 -3.59545 -3.54014 3.91525e-05
265 1 11.4852 -1.41103 -1.78795 -3.54009 9.3038e-05
266 1 11.1192 0.368424 0.0195459 -3.53984 0.000252174
267 1 10.7488 2.14482 1.82705 -3.5397 0.000430117
268 1 13.2456 -1.05718 -3.59545 -3.54011 4.57323e-05
269 1 12.8811 0.723006 -1.78795 -3.54007 0.000130529
270 1 12.5137 2.50084 0.0195459 -3.5401 0.000327943
271 1 12.1445 4.27487 1.82705 -3.54021 0.000584052
272 1 14.645 1.07587 -3.59545 -3.54023 0.000125342
273 1 14.2811 2.85322 -1.78795 -3.54027 0.000252276
274 1 13.9174 4.62693 0.019546 -3.5402 0.000327236
275 1 13.5552 6.39627 1.82705 -3.53997 0.000244018
276 1 16.0511 3.20357 -3.59545 -3.54028 0.000151077
277 1 15.6914 4.97684 -1.78795 -3.54015 0.000141819
278 1 15.333 6.74696 0.019546 -3.53998 0.000106613
279 1 14.9755 8.51445 1.82705 -3.53992 8.01053e-05
280 1 17.4659 5.32613 -3.59545 -3.54015 6.18561e-05
281 1 17.1098 7.09687 -1.78795 -3.54008 5.65467e-05
282 1 16.7542 8.86552 0.0195461 -3.54009 6.32666e-05
283 1 16.3993 10.6322 1.82705 -3.54015 7.52764e-05
284 1 18.8862 7.4464 -3.59545 -3.54017 3.55529e-05
285 1 18.5324 9.2156 -1.78795 -3.54018 4.50324e-05
286 1 18.1795 10.9829 0.0195461 -3.54017 4.88811e-05
287 1 17.8282 12.7483 1.82705 -3.5401 4.06752e-05
288 1 20.3102 9.56535 -3.59545 -3.5402 2.42537e-05
289 1 19.9589 11.3333 -1.78795 -3.54015 2.55217e-05
290 1 19.6086 13.0998 0.019547 -3.54007 3.38748e-05
291 1 19.2592 14.8655 1.82705 -3.53999 6.19755e-05
292 1 21.737 11.684 -3.59545 -3.54014 1.80448e-05
293 1 21.3869 13.4519 -1.78795 -3.54008 3.57117e-05
294 1 21.0369 15.2194 0.0195471 -3.54003 5.88451e-05
295 1 20.6863 16.9871 1.82705 -3.54004 7.12404e-05
296 1 23.1631 13.8047 -3.59545 -3.5401 3.32576e-05
297 1 22.8123 15.5738 -1.78795 -3.54009 4.49781e-05
298 1 22.4606 17.3432 0.0195471 -3.5401 4.57168e-05
299 1 24.586 15.9285 -3.59545 -3.54013 3.03861e-05
300 1 24.2333 17.6992 -1.78795 -3.54014 2.78045e-05
301 1 26.005 18.0552 -3.59545 -3.54017 1.64833e-05
302 1 1.89329 -17.909 0.0195441 -3.45122 0.606339
303 1 1.37048 -16.1276 1.82704 -3.44309 0.670132
304 1 3.59853 -17.6467 -1.78796 -3.54068 0.0749894
305 1 3.25651 -15.8621 0.0195441 -3.51743 0.0964101
306 1 2.9588 -14.1713 1.82704 -3.50889 0.0599705
307 1 5.37988 -17.3581 -3.59546 -3.54433 0.0149664
308 1 5.08119 -15.5914 -1.78796 -3.53572 0.00814676
309 1 4.78422 -13.8407 0.0195449 -3.53023 0.0207889
310 1 4.47138 -12.0964 1.82704 -3.5348 0.0236894
311 1 6.87571 -15.2793 -3.59546 -3.53843 0.00482403
312 1 6.56639 -13.5092 -1.78796 -3.53644 0.00838893
313 1 6.23587 -11.7341 0.019545 -3.53745 0.00478697
314 1 5.88607 -9.95223 1.82704 -3.54171 0.00211299
315 1 8.33001 -13.1645 -3.59546 -3.53908 0.00257862
316 1 7.99009 -11.3804 -1.78796 -3.53939 0.000762639
317 1 7.63807 -9.59528 0.019545 -3.54051 0.000156811
318 1 7.28265 -7.81049 1.82704 -3.54163 0.00051909
319 1 9.74537 -11.0283 -3.59545 -3.54027 0.000159874
320 1 9.39464 -9.24352 -1.78795 -3.54028 5.69647e-05
321 1 9.04138 -7.46064 0.019545 -3.54041 3.10989e-05
322 1 8.68776 -5.67899 1.82705 -3.54037 7.8583e-05
323 1 11.154 -8.89207 -3.59545 -3.54024 3.58571e-05
324 1 10.8016 -7.10963 -1.78795 -3.54004 2.49099e-05
325 1 10.4469 -5.32773 0.0195459 -3.54005 6.07882e-05
326 1 10.089 -3.54584 1.82705 -3.54013 0.000106535
327 1 12.562 -6.75687 -3.59545 -3.54006 4.03426e-05
328 1 12.2062 -4.97464 -1.78795 -3.54005 3.81065e-05
329 1 11.8474 -3.19246 0.0195459 -3.54014 3.91525e-05
330 1 11.4852 -1.41103 1.82705 -3.54009 9.3038e-05
331 1 13.9664 -4.62059 -3.59545 -3.54012 2.51515e-05
332 1 13.6073 -2.83863 -1.78795 -3.54013 2.27434e-05
333 1 13.2456 -1.05718 0.019546 -3.54011 4.57323e-05
334 1 12.8811 0.723006 1.82705 -3.54007 0.000130529
335 1 15.3688 -2.48465 -3.59545 -3.54017 2.4108e-05
336 1 15.0077 -0.703802 -1.78795 -3.54018 5.01148e-05
337 1 14.645 1.07587 0.019546 -3.54023 0.000125342
338 1 14.2811 2.85322 1.82705 -3.54027 0.000252276
339 1 16.7722 -0.351077 -3.59545 -3.54027 6.48855e-05
340 1 16.4116 1.42734 -1.78795 -3.5403 0.000113819
341 1 16.0511 3.20357 0.019546 -3.54028 0.000151077
342 1 15.6914 4.97684 1.82705 -3.54015 0.000141819
343 1 18.1807 1.77803 -3.59545 -3.5403 8.05694e-05
344 1 17.8229 3.55317 -1.78795 -3.54024 7.66196e-05
345 1 17.4659 5.32613 0.0195461 -3.54015 6.18561e-05
346 1 17.1098 7.09687 1.82705 -3.54008 5.65467e-05
347 1 19.5958 3.90276 -3.59545 -3.54023 3.95224e-05
348 1 19.2407 5.67541 -1.78795 -3.54019 3.25536e-05
349 1 18.8862 7.4464 0.019547 -3.54017 3.55529e-05
350 1 18.5324 9.2156 1.82705 -3.54018 4.50324e-05
351 1 21.0156 6.02491 -3.59545 -3.54023 1.99991e-05
352 1 20.6625 7.79587 -1.78795 -3.54022 2.15511e-05
353 1 20.3102 9.56535 0.0195471 -3.5402 2.42537e-05
354 1 19.9589 11.3333 1.82705 -3.54015 2.55217e-05
355 1 22.4388 8.14565 -3.59545 -3.54023 1.0527e-05
356 1 22.0875 9.91538 -1.78795 -3.5402 1.12406e-05
357 1 21.737 11.684 0.0195471 -3.54014 1.80448e-05
358 1 21.3869 13.4519 1.82705 -3.54008 3.57117e-05
359 1 23.864 10.2661 -3.59545 -3.54018 7.84722e-06
360 1 23.5136 12.0356 -1.78795 -3.54014 1.80675e-05
361 1 23.1631 13.8047 0.0195471 -3.5401 3.32576e-05
362 1 22.8123 15.5738 1.82705 -3.54009 4.49781e-05
363 1 25.2887 12.3879 -3.59545 -3.54015 1.77935e-05
364 1 24.9377 14.1581 -1.78795 -3.54013 2.65505e-05
365 1 24.586 15.9285 0.0195472 -3.54013 3.03861e-05
366 1 24.2333 17.6992 1.82705 -3.54014 2.78045e-05
367 1 26.711 14.5122 -3.59545 -3.54016 1.90369e-05
368 1 26.3585 16.2836 -1.78795 -3.54016 1.91544e-05
369 1 26.005 18.0552 0.0195472 -3.54017 1.64833e-05
370 1 28.1301 16.6387 -3.59545 -3.54018 1.15624e-05
371 1 27.7761 18.4111 -1.78795 -3.54019 9.54014e-06
372 1 3.59853 -17.6467 1.82704 -3.54068 0.0749894
373 1 5.37988 -17.3581 0.019545 -3.54433 0.0149664
374 1 5.08119 -15.5914 1.82704 -3.53572 0.00814676
375 1 7.1812 -17.0456 -1.78796 -3.54039 0.00277782
376 1 6.87571 -15.2793 0.019545 -3.53843 0.00482403
377 1 6.56639 -13.5092 1.82704 -3.53644 0.00838893
378 1 8.976 -16.7108 -3.59545 -3.53912 0.00194254
379 1 8.65626 -14.9424 -1.78795 -3.53899 0.00356749
380 1 8.33001 -13.1645 0.019545 -3.53908 0.00257862
381 1 7.99009 -11.3804 1.82704 -3.53939 0.000762639
382 1 10.4287 -14.5917 -3.59545 -3.53959 0.00162409
383 1 10.0905 -12.8126 -1.78795 -3.54008 0.000796148
384 1 9.74537 -11.0283 0.019545 -3.54027 0.000159874
385 1 9.39464 -9.24352 1.82705 -3.54028 5.69647e-05
386 1 11.8528 -12.4569 -3.59545 -3.54035 0.00030158
387 1 11.5045 -10.6751 -1.78795 -3.54043 0.000114633
388 1 11.154 -8.89207 0.0195459 -3.54024 3.58571e-05
389 1 10.8016 -7.10963 1.82705 -3.54004 2.49099e-05
390 1 13.2668 -10.3199 -3.59545 -3.54035 9.65334e-05
391 1 12.9152 -8.5388 -1.78795 -3.54021 5.56329e-05
392 1 12.562 -6.75687 0.0195459 -3.54006 4.03426e-05
393 1 12.2062 -4.97464 1.82705 -3.54005 3.81065e-05
394 1 14.6778 -8.18346 -3.59545 -3.5402 5.95013e-05
395 1 14.3231 -6.40242 -1.78795 -3.54014 4.03803e-05
396 1 13.9664 -4.62059 0.019546 -3.54012 2.51515e-05
397 1 13.6073 -2.83863 1.82705 -3.54013 2.27434e-05
398 1 16.0856 -6.04674 -3.59545 -3.54019 3.41884e-05
399 1 15.728 -4.26585 -1.78795 -3.54018 2.31106e-05
400 1 15.3688 -2.48465 0.019546 -3.54017 2.4108e-05
401 1 15.0077 -0.703802 1.82705 -3.54018 5.01148e-05
402 1 17.4914 -3.91071 -3.59545 -3.54023 2.60842e-05
403 1 17.1323 -2.13071 -1.78795 -3.54023 3.52406e-05
404 1 16.7722 -0.351077 0.0195461 -3.54027 6.48855e-05
405 1 16.4116 1.42734 1.82705 -3.5403 0.000113819
406 1 18.8981 -1.77698 -3.59545 -3.54029 4.46009e-05
407 1 18.5393 0.00110078 -1.78795 -3.5403 6.53485e-05
408 1 18.1807 1.77803 0.0195461 -3.5403 8.05694e-05
409 1 17.8229 3.55317 1.82705 -3.54024 7.66196e-05
410 1 20.3086 0.353004 -3.59545 -3.5403 5.21063e-05
411 1 19.9517 2.12855 -1.78795 -3.54028 4.9669e-05
412 1 19.5958 3.90276 0.019547 -3.54023 3.95224e-05
413 1 19.2407 5.67541 1.82705 -3.54019 3.25536e-05
414 1 21.7241 2.47925 -3.59545 -3.54026 3.03718e-05
415 1 21.3694 4.25265 -1.78795 -3.54024 2.32103e-05
416 1 21.0156 6.02491 0.0195471 -3.54023 1.99991e-05
417 1 20.6625 7.79587 1.82705 -3.54022 2.15511e-05
418 1 23.1437 4.60297 -3.59545 -3.54025 1.46682e-05
419 1 22.7908 6.37481 -1.78795 -3.54024 1.18121e-05
420 1 22.4388 8.14565 0.0195471 -3.54023 1.0527e-05
421 1 22.0875 9.91538 1.82705 -3.5402 1.12406e-05
422 1 24.5662 6.72526 -3.59545 -3.54024 5.89158e-06
423 1 24.2148 8.49603 -1.78795 -3.54022 4.71839e-06
424 1 23.864 10.2661 0.0195472 -3.54018 7.84722e-06
425 1 23.5136 12.0356 1.82705 -3.54014 1.80675e-05
426 1 25.9902 8.84721 -3.59545 -3.5402 3.77449e-06
427 1 25.6395 10.6177 -1.78795 -3.54018 8.87131e-06
428 1 25.2887 12.3879 0.0195472 -3.54015 1.77935e-05
429 1 24.9377 14.1581 1.82705 -3.54013 2.65505e-05
430 1 27.414 10.9701 -3.59545 -3.54018 9.92045e-06
431 1 27.0627 12.7411 -1.78795 -3.54016 1.55051e-05
432 1 26.711 14.5122 0.0195473 -3.54016 1.90369e-05
433 1 26.3585 16.2836 1.82705 -3.54016 1.91544e-05
434 1 28.8358 13.0949 -3.59545 -3.54018 1.21056e-05
435 1 28.4833 14.8667 -1.78795 -3.54018 1.26687e-05
436 1 28.1301 16.6387 0.0195473 -3.54018 1.15624e-05
437 1 27.7761 18.4111 1.82705 -3.54019 9.54014e-06
438 1 30.2551 15.2214 -3.59545 -3.54019 7.95924e-06
439 1 29.9013 16.994 -1.78795 -3.54019 6.80473e-06
440 1 31.6722 17.3493 -3.59545 -3.54021 4.03125e-06
441 1 7.1812 -17.0456 1.82704 -3.54039 0.00277782
442 1 8.976 -16.7108 0.019545 -3.53912 0.00194254
443 1 8.65626 -14.9424 1.82705 -3.53899 0.00356749
444 1 11.0929 -18.1266 -3.59545 -3.53936 0.000563422
445 1 10.7614 -16.3627 -1.78795 -3.53919 0.0014604
446 1 10.4287 -14.5917 0.019545 -3.53959 0.00162409
447 1 10.0905 -12.8126 1.82705 -3.54008 0.000796148
448 1 12.5396 -16.0074 -3.59545 -3.5396 0.000773681
449 1 12.1979 -14.2349 -1.78795 -3.53998 0.000600107
450 1 11.8528 -12.4569 0.0195459 -3.54035 0.00030158
451 1 11.5045 -10.6751 1.82705 -3.54043 0.000114633
452 1 13.9666 -13.876 -3.59545 -3.54016 0.000221107
453 1 13.6174 -12.0994 -1.78795 -3.54034 0.000143247
454 1 13.2668 -10.3199 0.019546 -3.54035 9.65334e-05
455 1 12.9152 -8.5388 1.82705 -3.54021 5.56329e-05
456 1 15.3837 -11.7408 -3.59545 -3.54028 7.75679e-05
457 1 15.0312 -9.96309 -1.78795 -3.54026 7.25673e-05
458 1 14.6778 -8.18346 0.019546 -3.5402 5.95013e-05
459 1 14.3231 -6.40242 1.82705 -3.54014 4.03803e-05
460 1 16.7967 -9.60506 -3.59545 -3.54022 4.85147e-05
461 1 16.4417 -7.82665 -1.78795 -3.54021 4.57457e-05
462 1 16.0856 -6.04674 0.019546 -3.54019 3.41884e-05
463 1 15.728 -4.26585 1.82705 -3.54018 2.31106e-05
464 1 18.2067 -7.46908 -3.59545 -3.54022 2.96788e-05
465 1 17.8495 -5.69036 -1.78795 -3.54022 2.72697e-05
466 1 17.4914 -3.91071 0.0195461 -3.54023 2.60842e-05
467 1 17.1323 -2.13071 1.82705 -3.54023 3.52406e-05
468 1 19.6151 -5.33377 -3.59545 -3.54025 2.28158e-05
469 1 19.2568 -3.55549 -1.78795 -3.54026 3.02723e-05
470 1 18.8981 -1.77698 0.019547 -3.54029 4.46009e-05
471 1 18.5393 0.00110078 1.82705 -3.5403 6.53485e-05
472 1 21.0241 -3.20045 -3.59545 -3.54029 3.20243e-05
473 1 20.6661 -1.4235 -1.78795 -3.5403 4.42303e-05
474 1 20.3086 0.353004 0.0195471 -3.5403 5.21063e-05
475 1 19.9517 2.12855 1.82705 -3.54028 4.9669e-05
476 1 22.4361 -1.0702 -3.59545 -3.5403 3.61541e-05
477 1 22.0796 0.70489 -1.78795 -3.54029 3.63933e-05
478 1 21.7241 2.47925 0.0195471 -3.54026 3.03718e-05
479 1 21.3694 4.25265 1.82705 -3.54024 2.32103e-05
480 1 23.852 1.05691 -3.59545 -3.54027 2.40608e-05
481 1 23.4974 2.83029 -1.78795 -3.54026 1.9274e-05
482 1 23.1437 4.60297 0.0195471 -3.54025 1.46682e-05
483 1 22.7908 6.37481 1.82705 -3.54024 1.18121e-05
484 1 25.2713 3.18172 -3.59545 -3.54025 1.20574e-05
485 1 24.9183 4.9538 -1.78795 -3.54025 8.70055e-06
486 1 24.5662 6.72526 0.0195472 -3.54024 5.89158e-06
487 1 24.2148 8.49603 1.82705 -3.54022 4.71839e-06
488 1 26.6932 5.30518 -3.59545 -3.54024 4.52682e-06
489 1 26.3414 7.0764 -1.78795 -3.54023 2.93472e-06
490 1 25.9902 8.84721 0.0195472 -3.5402 3.77449e-06
491 1 25.6395 10.6177 1.82705 -3.54018 8.87131e-06
492 1 28.1164 7.42827 -3.59545 -3.54021 2.46052e-06
493 1 27.7651 9.19923 -1.78795 -3.5402 4.95451e-06
494 1 27.414 10.9701 0.0195473 -3.54018 9.92045e-06
495 1 27.0627 12.7411 1.82705 -3.54016 1.55051e-05
496 1 29.5393 9.55203 -3.59545 -3.54019 6.09825e-06
497 1 29.1877 11.3233 -1.78795 -3.54018 9.62825e-06
498 1 28.8358 13.0949 0.0195474 -3.54018 1.21056e-05
499 1 28.4833 14.8667 1.82705 -3.54018 1.26687e-05
500 1 30.9607 11.6772 -3.59545 -3.54019 8.17642e-06
501 1 30.6082 13.4492 -1.78795 -3.54019 8.57733e-06
502 1 30.2551 15.2214 0.0195474 -3.54019 7.95924e-06
503 1 29.9013 16.994 1.82705 -3.54019 6.80473e-06
504 1 32.3801 13.8038 -3.59545 -3.5402 5.51286e-06
505 1 32.0264 15.5764 -1.78795 -3.5402 4.85771e-06
506 1 31.6722 17.3493 0.0195474 -3.54021 4.03125e-06
507 1 33.7976 15.9315 -3.59545 -3.54021 3.16666e-06
508 1 33.443 17.7047 -1.78795 -3.54022 2.45888e-06
509 1 35.2137 18.0599 -3.59545 -3.54023 1.37031e-06
510 1 11.0929 -18.1266 0.0195459 -3.53936 0.000563422
511 1 10.7614 -16.3627 1.82705 -3.53919 0.0014604
512 1 12.8788 -17.774 -1.78795 -3.53948 0.000551095
513 1 12.5396 -16.0074 0.0195459 -3.5396 0.000773681
514 1 12.1979 -14.2349 1.82705 -3.53998 0.000600107
515 1 14.659 -17.4172 -3.59545 -3.53974 0.00036101
516 1 14.3138 -15.6487 -1.78795 -3.53992 0.000335889
517 1 13.9666 -13.876 0.019546 -3.54016 0.000221107
518 1 13.6174 -12.0994 1.82705 -3.54034 0.000143247
519 1 16.0862 -15.2889 -3.59545 -3.54009 0.000138082
520 1 15.7355 -13.5162 -1.78795 -3.54021 9.26237e-05
521 1 15.3837 -11.7408 0.019546 -3.54028 7.75679e-05
522 1 15.0312 -9.96309 1.82705 -3.54026 7.25673e-05
523 1 17.5047 -13.1563 -3.59545 -3.54021 4.48019e-05
524 1 17.151 -11.3817 -1.78795 -3.54023 4.46106e-05
525 1 16.7967 -9.60506 0.0195461 -3.54022 4.85147e-05
526 1 16.4417 -7.82665 1.82705 -3.54021 4.57457e-05
527 1 18.9189 -11.0223 -3.59545 -3.54021 2.51117e-05
528 1 18.5631 -9.24648 -1.78795 -3.54021 2.86476e-05
529 1 18.2067 -7.46908 0.0195461 -3.54022 2.96788e-05
530 1 17.8495 -5.69036 1.82705 -3.54022 2.72697e-05
531 1 20.3303 -8.88784 -3.59545 -3.54021 1.52805e-05
532 1 19.973 -7.11133 -1.78795 -3.54023 1.85343e-05
533 1 19.6151 -5.33377 0.019547 -3.54025 2.28158e-05
534 1 19.2568 -3.55549 1.82705 -3.54026 3.02723e-05
535 1 21.7404 -6.75379 -3.59545 -3.54024 1.30971e-05
536 1 21.3823 -4.97735 -1.78795 -3.54026 2.10483e-05
537 1 21.0241 -3.20045 0.0195471 -3.54029 3.20243e-05
538 1 20.6661 -1.4235 1.82705 -3.5403 4.42303e-05
539 1 23.151 -4.62133 -3.59545 -3.54027 1.99222e-05
540 1 22.7933 -2.84571 -1.78795 -3.54029 2.93948e-05
541 1 22.4361 -1.0702 0.0195471 -3.5403 3.61541e-05
542 1 22.0796 0.70489 1.82705 -3.54029 3.63933e-05
543 1 24.5639 -2.49131 -3.59545 -3.54028 2.37604e-05
544 1 24.2075 -0.717008 -1.78795 -3.54028 2.61642e-05
545 1 23.852 1.05691 0.0195472 -3.54027 2.40608e-05
546 1 23.4974 2.83029 1.82705 -3.54026 1.9274e-05
547 1 25.9801 -0.363862 -3.59545 -3.54026 1.76189e-05
548 1 25.6252 1.40914 -1.78795 -3.54026 1.53942e-05
549 1 25.2713 3.18172 0.0195472 -3.54025 1.20574e-05
550 1 24.9183 4.9538 1.82705 -3.54025 8.70055e-06
551 1 27.3991 1.76159 -3.59545 -3.54025 9.25767e-06
552 1 27.0458 3.53356 -1.78795 -3.54025 6.88123e-06
553 1 26.6932 5.30518 0.0195473 -3.54024 4.52682e-06
554 1 26.3414 7.0764 1.82705 -3.54023 2.93472e-06
555 1 28.8204 3.88582 -3.59545 -3.54023 3.48426e-06
556 1 28.4681 5.65715 -1.78795 -3.54023 2.35947e-06
557 1 28.1164 7.42827 0.0195473 -3.54021 2.46052e-06
558 1 27.7651 9.19923 1.82705 -3.5402 4.95451e-06
559 1 30.2427 6.00971 -3.59545 -3.54021 1.73997e-06
560 1 29.8909 7.78085 -1.78795 -3.5402 3.11958e-06
561 1 29.5393 9.55203 0.0195474 -3.54019 6.09825e-06
562 1 29.1877 11.3233 1.82705 -3.54018 9.62825e-06
563 1 31.665 8.13406 -3.59545 -3.5402 3.9011e-06
564 1 31.3129 9.90549 -1.78795 -3.5402 6.43998e-06
565 1 30.9607 11.6772 0.0195474 -3.54019 8.17642e-06
566 1 30.6082 13.4492 1.82705 -3.54019 8.57733e-06
567 1 33.086 10.2595 -3.59545 -3.5402 5.88008e-06
568 1 32.7332 12.0315 -1.78795 -3.5402 6.01064e-06
569 1 32.3801 13.8038 0.0195475 -3.5402 5.51286e-06
570 1 32.0264 15.5764 1.82705 -3.5402 4.85771e-06
571 1 34.5053 12.3862 -3.59545 -3.5402 3.64648e-06
572 1 34.1517 14.1587 -1.78795 -3.5402 3.35729e-06
573 1 33.7976 15.9315 0.0195475 -3.54021 3.16666e-06
574 1 33.443 17.7047 1.82705 -3.54022 2.45888e-06
575 1 35.9231 14.5137 -3.59545 -3.54021 2.48953e-06
576 1 35.5687 16.2867 -1.78795 -3.54022 2.45752e-06
577 1 35.2137 18.0599 0.0195475 -3.54023 1.37031e-06
578 1 37.3397 16.6418 -3.59545 -3.54024 1.92951e-06
579 1 36.9844 18.4152 -1.78795 -3.54023 3.34004e-07