ITEM: TIMESTEP
0
ITEM: NUMBER OF ATOMS
2504
ITEM: BOX BOUNDS xy xz yz mm pp pp
-5.5498871899999997e+01 5.5498871899999997e+01 0.0000000000000000e+00
-1.8432957300000002e+01 1.8432957300000002e+01 0.0000000000000000e+00
-3.6150000000000002e+00 3.6150000000000002e+00 0.0000000000000000e+00
ITEM: ATOMS id type x y z c_eng c_csym
1 1 0.634169 16.7472 -3.60553 -3.44171 3.60531
2 1 0.288923 -18.3044 -1.79803 -3.28421 9.10026
3 1 0.999084 13.0349 -3.60553 -3.49393 0.348316
4 1 0.866409 14.7881 -1.79803 -3.50384 0.587292
5 1 0.634169 16.7472 0.00947422 -3.44171 3.60531
6 1 0.288923 -18.3044 1.81697 -3.28421 9.10026
7 1 2.58922 15.1724 -3.60553 -3.54132 0.120195
8 1 2.2893 17.0069 -1.79803 -3.52135 0.0795069
9 1 3.97951 17.3722 -3.60553 -3.54527 0.0292815
10 1 0.552029 7.43632 -3.60553 -3.50855 1.58908
11 1 0.204715 9.20662 -1.79803 -3.33054 4.41162
12 1 1.8381 9.62309 -3.60553 -3.48873 0.331345
13 1 1.35048 11.3834 -1.79803 -3.4853 0.398257
14 1 0.999084 13.0349 0.00947442 -3.49393 0.348316
15 1 0.866409 14.7881 1.81697 -3.50384 0.587292
16 1 3.21945 11.7039 -3.60553 -3.52266 0.0425947
17 1 2.91207 13.4106 -1.79803 -3.51318 0.0725765
18 1 2.58922 15.1724 0.00947451 -3.54132 0.120195
19 1 2.2893 17.0069 1.81697 -3.52135 0.0795069
20 1 4.70336 13.7886 -3.60552 -3.53304 0.0138401
21 1 4.34985 15.5593 -1.79803 -3.53809 0.0126031
22 1 3.97951 17.3722 0.00947461 -3.54527 0.0292815
23 1 6.10452 15.9363 -3.60552 -3.54092 0.00250637
24 1 5.73653 17.7195 -1.79802 -3.54484 0.0127109
25 1 7.5229 18.0616 -3.60552 -3.54131 0.00254081
26 1 1.0786 3.78569 -3.60553 -3.51872 0.204121
27 1 0.849997 5.55517 -1.79803 -3.53388 0.179763
28 1 0.552029 7.43632 0.00947422 -3.50855 1.58904
29 1 0.204715 9.20662 1.81697 -3.33099 4.41162
30 1 2.58672 5.94359 -3.60553 -3.54193 0.0516796
31 1 2.25536 7.75263 -1.79803 -3.52398 0.0433271
32 1 1.8381 9.62309 0.00947455 -3.48873 0.331345
33 1 1.35048 11.3834 1.81697 -3.4853 0.398257
34 1 3.96103 8.13906 -3.60553 -3.54456 0.0177767
35 1 3.57407 9.941 -1.79803 -3.54298 0.0482018
36 1 3.21945 11.7039 0.00947465 -3.52266 0.0425947
37 1 2.91207 13.4106 1.81697 -3.51318 0.0725765
38 1 5.365 10.2704 -3.60552 -3.54235 0.00606734
39 1 5.03748 12.0281 -1.79802 -3.53459 0.00743857
40 1 4.70336 13.7886 0.00947513 -3.53304 0.0138401
41 1 4.34985 15.5593 1.81697 -3.53809 0.0126031
42 1 6.82044 12.3801 -3.60552 -3.53824 0.00295999
43 1 6.47085 14.154 -1.79802 -3.53817 0.00182412
44 1 6.10452 15.9363 0.00947518 -3.54092 0.00250637
45 1 5.73653 17.7195 1.81698 -3.54484 0.0127109
46 1 8.23571 14.5155 -3.60552 -3.54072 0.000404541
47 1 7.87495 16.2917 -1.79802 -3.54147 0.00232942
48 1 7.5229 18.0616 0.00947528 -3.54131 0.00254081
49 1 9.6565 16.6403 -3.60552 -3.54078 0.000701116
50 1 9.31273 18.4056 -1.79802 -3.53972 0.000303018
51 1 0.563224 -1.79235 -3.60553 -3.51465 1.40556
52 1 0.221962 -0.0337131 -1.79803 -3.34821 3.80566
53 1 1.90722 0.356867 -3.60553 -3.50586 0.237635
54 1 1.4562 2.10871 -1.79803 -3.49879 0.251364
55 1 1.0786 3.78569 0.00947442 -3.51872 0.204087
56 1 0.849997 5.55517 1.81697 -3.53345 0.179763
57 1 3.28426 2.4615 -3.60553 -3.52779 0.0227457
58 1 2.94035 4.18628 -1.79803 -3.52548 0.0296404
59 1 2.58672 5.94359 0.00947451 -3.54193 0.0516796
60 1 2.25536 7.75263 1.81697 -3.52404 0.0433271
61 1 4.72057 4.57217 -3.60552 -3.53499 0.00669231
62 1 4.34937 6.33995 -1.79802 -3.538 0.0062216
63 1 3.96103 8.13906 0.00947461 -3.54456 0.0177767
64 1 3.57407 9.941 1.81697 -3.54298 0.0482018
65 1 6.10436 6.72428 -3.60552 -3.54079 0.00229166
66 1 5.72308 8.50106 -1.79802 -3.54387 0.00958359
67 1 5.365 10.2704 0.00947517 -3.54235 0.00606734
68 1 5.03748 12.0281 1.81698 -3.53459 0.00743857
69 1 7.50925 8.85413 -3.60552 -3.54081 0.00180157
70 1 7.16129 10.6149 -1.79802 -3.53912 0.000983838
71 1 6.82044 12.3801 0.00947528 -3.53824 0.00295999
72 1 6.47085 14.154 1.81698 -3.53817 0.00182412
73 1 8.94576 10.9707 -3.60552 -3.53911 0.00060134
74 1 8.59369 12.7398 -1.79802 -3.53968 0.000534971
75 1 8.23571 14.5155 0.00947532 -3.54072 0.000404541
76 1 7.87495 16.2917 1.81698 -3.54147 0.00232942
77 1 10.3665 13.0992 -3.60552 -3.54046 8.78087e-05
78 1 10.0092 14.8708 -1.79802 -3.54105 0.000571283
79 1 9.6565 16.6403 0.00947542 -3.54078 0.000701116
80 1 9.31273 18.4056 1.81698 -3.53972 0.000303018
81 1 11.789 15.2233 -3.60552 -3.54059 0.000214106
82 1 11.4405 16.9896 -1.79802 -3.54012 9.73349e-05
83 1 13.2222 17.3419 -3.60552 -3.53991 8.56023e-05
84 1 1.10839 -5.40675 -3.60553 -3.51223 0.237056
85 1 0.86396 -3.66064 -1.79803 -3.53853 0.183191
86 1 0.563224 -1.79235 0.00947422 -3.51465 1.40553
87 1 0.221962 -0.0337131 1.81697 -3.34845 3.80566
88 1 2.62047 -3.25908 -3.60553 -3.54399 0.0453781
89 1 2.29039 -1.477 -1.79803 -3.53164 0.0318787
90 1 1.90722 0.356867 0.00947455 -3.50586 0.237618
91 1 1.4562 2.10871 1.81697 -3.49923 0.251364
92 1 4.02427 -1.08966 -3.60552 -3.54509 0.00753709
93 1 3.6485 0.695114 -1.79802 -3.54202 0.0145828
94 1 3.28426 2.4615 0.00947465 -3.52779 0.0227457
95 1 2.94035 4.18628 1.81697 -3.52554 0.0296404
96 1 5.42518 1.04734 -3.60552 -3.54216 0.00152086
97 1 5.07651 2.80884 -1.79802 -3.53702 0.00307951
98 1 4.72057 4.57217 0.00947513 -3.53499 0.00669231
99 1 4.34937 6.33995 1.81698 -3.538 0.0062216
100 1 6.84888 3.17267 -3.60552 -3.53915 0.00125527
101 1 6.48369 4.94565 -1.79802 -3.53875 0.00102431
102 1 6.10436 6.72428 0.00947518 -3.54079 0.00229166
103 1 5.72308 8.50106 1.81698 -3.54387 0.00958359
104 1 8.24572 5.31337 -3.60552 -3.54069 0.000530645
105 1 7.87349 7.0872 -1.79802 -3.54128 0.00220451
106 1 7.50925 8.85413 0.00947528 -3.54081 0.00180157
107 1 7.16129 10.6149 1.81698 -3.53912 0.000983838
108 1 9.65235 7.44205 -3.60552 -3.54058 0.000630065
109 1 9.29651 9.20663 -1.79802 -3.53956 0.000164729
110 1 8.94576 10.9707 0.00947539 -3.53911 0.00060134
111 1 8.59369 12.7398 1.81698 -3.53968 0.000534971
112 1 11.078 9.56164 -3.60552 -3.5396 9.21366e-05
113 1 10.7233 11.329 -1.79802 -3.53975 0.000107914
114 1 10.3665 13.0992 0.00947547 -3.54046 8.78087e-05
115 1 10.0092 14.8708 1.81698 -3.54105 0.000571283
116 1 12.4991 11.6861 -3.60552 -3.54021 1.65712e-05
117 1 12.1428 13.4552 -1.79802 -3.54056 0.000137931
118 1 11.789 15.2233 0.009476 -3.54059 0.000214106
119 1 11.4405 16.9896 1.81698 -3.54012 9.73349e-05
120 1 13.9216 13.809 -3.60552 -3.54037 6.55014e-05
121 1 13.5703 15.5757 -1.79802 -3.54019 3.57181e-05
122 1 13.2222 17.3419 0.00947616 -3.53991 8.56023e-05
123 1 15.35 15.9291 -3.60552 -3.54004 2.89209e-05
124 1 15.0006 17.6965 -1.79802 -3.53996 7.99919e-05
125 1 16.7765 18.0522 -3.60552 -3.54006 4.69082e-05
126 1 0.678833 -10.917 -3.60553 -3.45594 3.19937
127 1 0.368027 -9.13357 -1.79803 -3.29929 8.53453
128 1 2.0038 -8.78674 -3.60553 -3.48252 0.451416
129 1 1.53052 -7.0331 -1.79803 -3.46802 0.450319
130 1 1.10839 -5.40675 0.00947442 -3.51223 0.237023
131 1 0.86396 -3.66064 1.81697 -3.53813 0.183191
132 1 3.34997 -6.70196 -3.60553 -3.52474 0.061748
133 1 2.99084 -4.98608 -1.79803 -3.52098 0.0371773
134 1 2.62047 -3.25908 0.00947451 -3.54399 0.0453781
135 1 2.29039 -1.477 1.81697 -3.53173 0.0318787
136 1 4.77653 -4.61391 -3.60552 -3.53378 0.0121517
137 1 4.40488 -2.86112 -1.79802 -3.53735 0.00430359
138 1 4.02427 -1.08966 0.00947502 -3.54509 0.00753709
139 1 3.6485 0.695114 1.81698 -3.54204 0.0145828
140 1 6.16917 -2.48471 -3.60552 -3.5391 0.00191559
141 1 5.79135 -0.717237 -1.79802 -3.54214 0.00202591
142 1 5.42518 1.04734 0.00947517 -3.54216 0.00152086
143 1 5.07651 2.80884 1.81698 -3.53702 0.00307951
144 1 7.56739 -0.35722 -3.60552 -3.54011 0.00068742
145 1 7.20694 1.40626 -1.79802 -3.53956 0.000356397
146 1 6.84888 3.17267 0.00947528 -3.53915 0.00125527
147 1 6.48369 4.94565 1.81698 -3.53875 0.00102431
148 1 8.98016 1.76749 -3.60552 -3.53931 0.000369043
149 1 8.61575 3.53864 -1.79802 -3.53981 0.000230745
150 1 8.24572 5.31337 0.00947532 -3.54069 0.000530645
151 1 7.87349 7.0872 1.81698 -3.54128 0.00220451
152 1 10.3827 3.90047 -3.60552 -3.54031 0.000190441
153 1 10.0157 5.67302 -1.79802 -3.54084 0.000626854
154 1 9.65235 7.44205 0.00947542 -3.54058 0.000630065
155 1 9.29651 9.20663 1.81698 -3.53956 0.000164729
156 1 11.7909 6.02775 -3.60552 -3.54041 0.00026274
157 1 11.4328 7.79544 -1.79802 -3.54001 8.29979e-05
158 1 11.078 9.56164 0.00947594 -3.5396 9.21366e-05
159 1 10.7233 11.329 1.81698 -3.53975 0.000107914
160 1 13.2111 8.14916 -3.60552 -3.53991 2.87266e-05
161 1 12.8554 9.91733 -1.79802 -3.53992 2.34695e-05
162 1 12.4991 11.6861 0.00947607 -3.54021 1.65712e-05
163 1 12.1428 13.4552 1.81698 -3.54056 0.000137931
164 1 14.6314 10.2721 -3.60552 -3.54016 1.37678e-05
165 1 14.2758 12.041 -1.79802 -3.54033 4.20323e-05
166 1 13.9216 13.809 0.0094762 -3.54037 6.55014e-05
167 1 13.5703 15.5757 1.81698 -3.54019 3.57181e-05
168 1 16.0533 12.3944 -3.60552 -3.54027 2.70478e-05
169 1 15.7007 14.1621 -1.79802 -3.54019 1.67431e-05
170 1 15.35 15.9291 0.00947639 -3.54004 2.89209e-05
171 1 15.0006 17.6965 1.81698 -3.53996 7.99919e-05
172 1 17.4787 14.5154 -3.60552 -3.54011 1.44278e-05
173 1 17.1275 16.2835 -1.79802 -3.54005 3.38431e-05
174 1 16.7765 18.0522 0.00947659 -3.54006 4.69082e-05
175 1 18.9031 16.6385 -3.60552 -3.5401 2.55941e-05
176 1 18.5509 18.4082 -1.79802 -3.54013 2.37462e-05
177 1 1.0155 -14.5824 -3.60553 -3.48243 0.470839
178 1 0.89654 -12.8389 -1.79803 -3.5162 0.513632
179 1 0.678833 -10.917 0.00947422 -3.45594 3.19937
180 1 0.368027 -9.13357 1.81697 -3.299 8.53453
181 1 2.64227 -12.4749 -3.60553 -3.54311 0.123842
182 1 2.3629 -10.6649 -1.79803 -3.52874 0.0770531
183 1 2.0038 -8.78674 0.00947455 -3.48252 0.4514
184 1 1.53052 -7.0331 1.81697 -3.46849 0.450319
185 1 4.06798 -10.3014 -3.60552 -3.54606 0.0188434
186 1 3.71009 -8.48836 -1.79802 -3.54229 0.0232837
187 1 3.34997 -6.70196 0.00947465 -3.52474 0.061748
188 1 2.99084 -4.98608 1.81697 -3.52104 0.0371773
189 1 5.46712 -8.1593 -3.60552 -3.54402 0.00333085
190 1 5.12865 -6.38157 -1.79802 -3.5379 0.00455409
191 1 4.77653 -4.61391 0.00947513 -3.53378 0.0121517
192 1 4.40488 -2.86112 1.81698 -3.53735 0.00430359
193 1 6.89271 -6.03804 -3.60552 -3.5399 0.00088069
194 1 6.53901 -4.25955 -1.79802 -3.53848 0.00202973
195 1 6.16917 -2.48471 0.00947518 -3.5391 0.00191559
196 1 5.79135 -0.717237 1.81698 -3.54214 0.00202591
197 1 8.29714 -3.90512 -3.60552 -3.54038 0.000204889
198 1 7.93307 -2.12722 -1.79802 -3.54033 0.000880126
199 1 7.56739 -0.35722 0.00947528 -3.54011 0.00068742
200 1 7.20694 1.40626 1.81698 -3.53956 0.000356397
201 1 9.7 -1.77482 -3.60552 -3.5404 0.00017942
202 1 9.34069 -0.00227877 -1.79802 -3.53961 0.000247663
203 1 8.98016 1.76749 0.00947539 -3.53931 0.000369043
204 1 8.61575 3.53864 1.81698 -3.53981 0.000230745
205 1 11.1096 0.352577 -3.60552 -3.53979 0.000101221
206 1 10.7481 2.12667 -1.79802 -3.53978 0.000127992
207 1 10.3827 3.90047 0.00947588 -3.54031 0.000190441
208 1 10.0157 5.67302 1.81698 -3.54084 0.000626854
209 1 12.5155 2.48296 -3.60552 -3.54021 8.79081e-05
210 1 12.1527 4.25684 -1.79802 -3.54042 0.000237196
211 1 11.7909 6.02775 0.009476 -3.54041 0.00026274
212 1 11.4328 7.79544 1.81698 -3.54001 8.29979e-05
213 1 13.9253 4.60994 -3.60552 -3.54032 0.000122654
214 1 13.5673 6.38054 -1.79802 -3.54012 6.8404e-05
215 1 13.2111 8.14916 0.00947616 -3.53991 2.87266e-05
216 1 12.8554 9.91733 1.81698 -3.53992 2.34695e-05
217 1 15.3428 6.7329 -3.60552 -3.54007 2.18569e-05
218 1 14.9872 8.50278 -1.79802 -3.54004 1.54527e-05
219 1 14.6314 10.2721 0.0094763 -3.54016 1.37678e-05
220 1 14.2758 12.041 1.81698 -3.54033 4.20323e-05
221 1 16.7624 8.85582 -3.60552 -3.54016 1.25424e-05
222 1 16.4074 10.6256 -1.79802 -3.54024 2.12029e-05
223 1 16.0533 12.3944 0.00947646 -3.54027 2.70478e-05
224 1 15.7007 14.1621 1.81698 -3.54019 1.67431e-05
225 1 18.1835 10.9783 -3.60552 -3.54023 1.41933e-05
226 1 17.8306 12.7472 -1.79802 -3.54019 1.13054e-05
227 1 17.4787 14.5154 0.00947667 -3.54011 1.44278e-05
228 1 17.1275 16.2835 1.81698 -3.54005 3.38431e-05
229 1 19.6069 13.1002 -3.60552 -3.54015 8.82835e-06
230 1 19.255 14.8693 -1.79802 -3.5401 1.74403e-05
231 1 18.9031 16.6385 0.0094769 -3.5401 2.55941e-05
232 1 18.5509 18.4082 1.81698 -3.54013 2.37462e-05
233 1 21.0299 15.2235 -3.60552 -3.54013 1.48942e-05
234 1 20.6773 16.9937 -1.79802 -3.54014 1.61814e-05
235 1 22.4505 17.3489 -3.60552 -3.54017 9.95442e-06
236 1 1.89699 -17.9495 -3.60553 -3.45583 0.651704
237 1 1.38522 -16.1851 -1.79803 -3.43648 0.705547
238 1 1.0155 -14.5824 0.00947442 -3.48243 0.470839
239 1 0.89654 -12.8389 1.81697 -3.5162 0.513632
240 1 3.26655 -15.8969 -3.60553 -3.51762 0.0817495
241 1 2.95999 -14.2047 -1.79803 -3.50878 0.0769902
242 1 2.64227 -12.4749 0.00947451 -3.54311 0.123842
243 1 2.3629 -10.6649 1.81697 -3.52877 0.0770531
244 1 4.76501 -13.8468 -3.60552 -3.53129 0.0191868
245 1 4.42401 -12.0927 -1.79802 -3.53693 0.0136131
246 1 4.06798 -10.3014 0.00947502 -3.54606 0.0188434
247 1 3.71009 -8.48836 1.81698 -3.54231 0.0232837
248 1 6.18339 -11.7204 -3.60552 -3.53929 0.00108834
249 1 5.81998 -9.9415 -1.79802 -3.54354 0.00307301
250 1 5.46712 -8.1593 0.00947517 -3.54402 0.00333085
251 1 5.12865 -6.38157 1.81698 -3.5379 0.00455409
252 1 7.58848 -9.58819 -3.60552 -3.54084 0.000368142
253 1 7.23893 -7.81477 -1.79802 -3.54064 0.000393574
254 1 6.89271 -6.03804 0.00947528 -3.5399 0.00088069
255 1 6.53901 -4.25955 1.81698 -3.53848 0.00202973
256 1 9.00784 -7.46245 -3.60552 -3.53979 0.000187041
257 1 8.65506 -5.68527 -1.79802 -3.54014 0.000251812
258 1 8.29714 -3.90512 0.00947532 -3.54038 0.000204889
259 1 7.93307 -2.12722 1.81698 -3.54033 0.000880126
260 1 10.4179 -5.33015 -3.60552 -3.54031 3.23637e-05
261 1 10.0594 -3.55156 -1.79802 -3.54066 8.04402e-05
262 1 9.7 -1.77482 0.00947542 -3.5404 0.00017942
263 1 9.34069 -0.00227877 1.81698 -3.53961 0.000247663
264 1 11.8253 -3.19835 -3.60552 -3.54041 2.07441e-05
265 1 11.4679 -1.42226 -1.79802 -3.54016 2.14244e-05
266 1 11.1096 0.352577 0.00947594 -3.53979 0.000101221
267 1 10.7481 2.12667 1.81698 -3.53978 0.000127992
268 1 13.2354 -1.06861 -3.60552 -3.5401 9.21902e-06
269 1 12.8766 0.70743 -1.79802 -3.54007 2.74034e-05
270 1 12.5155 2.48296 0.00947607 -3.54021 8.79081e-05
271 1 12.1527 4.25684 1.81698 -3.54042 0.000237196
272 1 14.6442 1.06156 -3.60552 -3.54026 2.82129e-05
273 1 14.2847 2.83675 -1.79802 -3.54035 8.82026e-05
274 1 13.9253 4.60994 0.0094762 -3.54032 0.000122654
275 1 13.5673 6.38054 1.81698 -3.54012 6.8404e-05
276 1 16.0558 3.18916 -3.60552 -3.54031 5.15673e-05
277 1 15.6988 4.96188 -1.79802 -3.54021 4.02862e-05
278 1 15.3428 6.7329 0.00947639 -3.54007 2.18569e-05
279 1 14.9872 8.50278 1.81698 -3.54004 1.54527e-05
280 1 17.4725 5.31367 -3.60552 -3.54018 1.28697e-05
281 1 17.1174 7.08517 -1.79802 -3.54013 1.01312e-05
282 1 16.7624 8.85582 0.00947659 -3.54016 1.25424e-05
283 1 16.4074 10.6256 1.81698 -3.54024 2.12029e-05
284 1 18.8916 7.43733 -3.60552 -3.5402 6.9891e-06
285 1 18.5373 9.20827 -1.79802 -3.54022 1.12613e-05
286 1 18.1835 10.9783 0.00947679 -3.54023 1.41933e-05
287 1 17.8306 12.7472 1.81698 -3.54019 1.13054e-05
288 1 20.3123 9.56046 -3.60552 -3.54023 6.51093e-06
289 1 19.9593 11.3307 -1.79802 -3.5402 6.60726e-06
290 1 19.6069 13.1002 0.00947741 -3.54015 8.82835e-06
291 1 19.255 14.8693 1.81698 -3.5401 1.74403e-05
292 1 21.7345 11.6833 -3.60552 -3.54018 4.50028e-06
293 1 21.3822 13.4535 -1.79802 -3.54015 9.34241e-06
294 1 21.0299 15.2235 0.00947762 -3.54013 1.48942e-05
295 1 20.6773 16.9937 1.81698 -3.54014 1.61814e-05
296 1 23.1564 13.8071 -3.60552 -3.54016 8.26902e-06
297 1 22.8037 15.5779 -1.79802 -3.54016 1.04994e-05
298 1 22.4505 17.3489 0.0094778 -3.54017 9.95442e-06
299 1 24.5766 15.9326 -3.60552 -3.54018 6.86487e-06
300 1 24.223 17.7041 -1.79802 -3.54019 6.18769e-06
301 1 25.9951 18.0593 -3.60552 -3.5402 3.80962e-06
302 1 1.89699 -17.9495 0.00947455 -3.45583 0.651704
303 1 1.38522 -16.1851 1.81697 -3.43648 0.705547
304 1 3.61113 -17.6728 -1.79803 -3.54263 0.0627115
305 1 3.26655 -15.8969 0.00947465 -3.51762 0.0817495
306 1 2.95999 -14.2047 1.81697 -3.50878 0.0769902
307 1 5.39368 -17.3679 -3.60552 -3.54393 0.0094988
308 1 5.08317 -15.6036 -1.79802 -3.53521 0.00861149
309 1 4.76501 -13.8468 0.00947513 -3.53129 0.0191868
310 1 4.42401 -12.0927 1.81698 -3.53693 0.0136131
311 1 6.86685 -15.2725 -3.60552 -3.53858 0.00397883
312 1 6.53557 -13.4986 -1.79802 -3.53749 0.00434915
313 1 6.18339 -11.7204 0.00947518 -3.53929 0.00108834
314 1 5.81998 -9.9415 1.81698 -3.54354 0.00307301
315 1 8.29637 -13.146 -3.60552 -3.54012 0.000502731
316 1 7.94389 -11.3651 -1.79802 -3.54053 0.000278658
317 1 7.58848 -9.58819 0.00947528 -3.54084 0.000368142
318 1 7.23893 -7.81477 1.81698 -3.54064 0.000393574
319 1 9.70929 -11.0139 -3.60552 -3.5406 5.99206e-05
320 1 9.35854 -9.23758 -1.79802 -3.53997 2.50137e-05
321 1 9.00784 -7.46245 0.00947539 -3.53979 0.000187041
322 1 8.65506 -5.68527 1.81698 -3.54014 0.000251812
323 1 11.1264 -8.88524 -3.60552 -3.53996 4.84567e-05
324 1 10.7737 -7.10822 -1.79802 -3.53992 7.32066e-05
325 1 10.4179 -5.33015 0.00947588 -3.54031 3.23637e-05
326 1 10.0594 -3.55156 1.81698 -3.54066 8.04402e-05
327 1 12.5389 -6.75351 -3.60552 -3.54017 1.72029e-05
328 1 12.1826 -4.97566 -1.79802 -3.54035 1.46648e-05
329 1 11.8253 -3.19835 0.009476 -3.54041 2.07441e-05
330 1 11.4679 -1.42226 1.81698 -3.54016 2.14244e-05
331 1 13.949 -4.62158 -3.60552 -3.54029 7.08535e-06
332 1 13.5925 -2.84488 -1.79802 -3.54021 2.70687e-06
333 1 13.2354 -1.06861 0.00947616 -3.5401 9.21902e-06
334 1 12.8766 0.70743 1.81698 -3.54007 2.74034e-05
335 1 15.3601 -2.49091 -3.60552 -3.54017 2.833e-06
336 1 15.0028 -0.714558 -1.79802 -3.54017 6.29001e-06
337 1 14.6442 1.06156 0.0094763 -3.54026 2.82129e-05
338 1 14.2847 2.83675 1.81698 -3.54035 8.82026e-05
339 1 16.7711 -0.36072 -3.60552 -3.54025 1.34013e-05
340 1 16.4134 1.41478 -1.79802 -3.54031 3.45983e-05
341 1 16.0558 3.18916 0.00947646 -3.54031 5.15673e-05
342 1 15.6988 4.96188 1.81698 -3.54021 4.02862e-05
343 1 18.1841 1.76742 -3.60552 -3.54029 2.46749e-05
344 1 17.828 3.54111 -1.79802 -3.54025 2.1408e-05
345 1 17.4725 5.31367 0.00947667 -3.54018 1.28697e-05
346 1 17.1174 7.08517 1.81698 -3.54013 1.01312e-05
347 1 19.6007 3.89313 -3.60552 -3.54022 8.75337e-06
348 1 19.246 5.6656 -1.79802 -3.5402 5.86064e-06
349 1 18.8916 7.43733 0.00947731 -3.5402 6.9891e-06
350 1 18.5373 9.20827 1.81698 -3.54022 1.12613e-05
351 1 21.0196 6.01769 -3.60552 -3.54022 3.96673e-06
352 1 20.6658 7.78943 -1.79802 -3.54023 5.10813e-06
353 1 20.3123 9.56046 0.00947753 -3.54023 6.51093e-06
354 1 19.9593 11.3307 1.81698 -3.5402 6.60726e-06
355 1 22.4399 8.14163 -3.60552 -3.54023 2.71438e-06
356 1 22.087 9.91274 -1.79802 -3.54022 2.84967e-06
357 1 21.7345 11.6833 0.00947773 -3.54018 4.50028e-06
358 1 21.3822 13.4535 1.81698 -3.54015 9.34241e-06
359 1 23.8614 10.2654 -3.60552 -3.5402 1.9146e-06
360 1 23.5089 12.0363 -1.79802 -3.54018 4.55961e-06
361 1 23.1564 13.8071 0.00947791 -3.54016 8.26902e-06
362 1 22.8037 15.5779 1.81698 -3.54016 1.04994e-05
363 1 25.2826 12.3898 -3.60552 -3.54019 4.3734e-06
364 1 24.9298 14.1611 -1.79802 -3.54018 6.28057e-06
365 1 24.5766 15.9326 0.00947808 -3.54018 6.86487e-06
366 1 24.223 17.7041 1.81698 -3.54019 6.18769e-06
367 1 26.7025 14.5154 -3.60552 -3.54019 4.39126e-06
368 1 26.349 16.2873 -1.79802 -3.54019 4.33813e-06
369 1 25.9951 18.0593 0.00947829 -3.5402 3.80962e-06
370 1 28.121 16.6421 -3.60552 -3.5402 2.65021e-06
371 1 27.7668 18.4145 -1.79802 -3.5402 2.26736e-06
372 1 3.61113 -17.6728 1.81697 -3.54263 0.0627115
373 1 5.39368 -17.3679 0.00947517 -3.54393 0.0094988
374 1 5.08317 -15.6036 1.81698 -3.53521 0.00861149
375 1 7.18974 -17.0403 -1.79802 -3.53986 0.00169154
376 1 6.86685 -15.2725 0.00947528 -3.53858 0.00397883
377 1 6.53557 -13.4986 1.81698 -3.53749 0.00434915
378 1 8.97614 -16.6952 -3.60552 -3.53918 0.00119687
379 1 8.63978 -14.9245 -1.79802 -3.53954 0.00165912
380 1 8.29637 -13.146 0.00947532 -3.54012 0.000502731
381 1 7.94389 -11.3651 1.81698 -3.54053 0.000278658
382 1 10.409 -14.5696 -3.60552 -3.54015 0.000389757
383 1 10.0602 -12.7924 -1.79802 -3.54071 0.000100116
384 1 9.70929 -11.0139 0.00947542 -3.5406 5.99206e-05
385 1 9.35854 -9.23758 1.81698 -3.53997 2.50137e-05
386 1 11.8279 -12.4381 -3.60552 -3.54053 4.74926e-05
387 1 11.4772 -10.6618 -1.79802 -3.54033 2.35614e-05
388 1 11.1264 -8.88524 0.00947594 -3.53996 4.84567e-05
389 1 10.7737 -7.10822 1.81698 -3.53992 7.32066e-05
390 1 13.2457 -10.3075 -3.60552 -3.5402 3.68858e-05
391 1 12.8932 -8.53102 -1.79802 -3.54012 3.66287e-05
392 1 12.5389 -6.75351 0.00947607 -3.54017 1.72029e-05
393 1 12.1826 -4.97566 1.81698 -3.54035 1.46648e-05
394 1 14.6602 -8.17569 -3.60552 -3.54023 1.90492e-05
395 1 14.3051 -6.39871 -1.79802 -3.54028 9.66569e-06
396 1 13.949 -4.62158 0.0094762 -3.54029 7.08535e-06
397 1 13.5925 -2.84488 1.81698 -3.54021 2.70687e-06
398 1 16.0725 -6.04373 -3.60552 -3.54028 7.80624e-06
399 1 15.7166 -4.26732 -1.79802 -3.54023 4.21598e-06
400 1 15.3601 -2.49091 0.00947639 -3.54017 2.833e-06
401 1 15.0028 -0.714558 1.81698 -3.54017 6.29001e-06
402 1 17.4848 -3.91269 -3.60552 -3.54022 4.69694e-06
403 1 17.1283 -2.13669 -1.79802 -3.54021 5.23213e-06
404 1 16.7711 -0.36072 0.00947659 -3.54025 1.34013e-05
405 1 16.4134 1.41478 1.81698 -3.54031 3.45983e-05
406 1 18.8974 -1.78249 -3.60552 -3.54026 9.30493e-06
407 1 18.5407 -0.00725252 -1.79802 -3.54029 1.75052e-05
408 1 18.1841 1.76742 0.00947679 -3.54029 2.46749e-05
409 1 17.828 3.54111 1.81698 -3.54025 2.1408e-05
410 1 20.3115 0.345981 -3.60552 -3.54028 1.43147e-05
411 1 19.9558 2.1199 -1.79802 -3.54026 1.33222e-05
412 1 19.6007 3.89313 0.00947741 -3.54022 8.75337e-06
413 1 19.246 5.6656 1.81698 -3.5402 5.86064e-06
414 1 21.7282 2.4725 -3.60552 -3.54024 7.06227e-06
415 1 21.3737 4.24535 -1.79802 -3.54023 4.65385e-06
416 1 21.0196 6.01769 0.00947762 -3.54022 3.96673e-06
417 1 20.6658 7.78943 1.81698 -3.54023 5.10813e-06
418 1 23.147 4.59782 -3.60552 -3.54023 3.09009e-06
419 1 22.7933 6.36996 -1.79802 -3.54023 2.7142e-06
420 1 22.4399 8.14163 0.0094778 -3.54023 2.71438e-06
421 1 22.087 9.91274 1.81698 -3.54022 2.84967e-06
422 1 24.567 6.72249 -3.60552 -3.54023 1.45736e-06
423 1 24.214 8.49411 -1.79802 -3.54022 1.18143e-06
424 1 23.8614 10.2654 0.009478 -3.5402 1.9146e-06
425 1 23.5089 12.0363 1.81698 -3.54018 4.55961e-06
426 1 25.9879 8.84696 -3.60552 -3.54021 9.01853e-07
427 1 25.6352 10.6184 -1.79802 -3.5402 2.18224e-06
428 1 25.2826 12.3898 0.00947821 -3.54019 4.3734e-06
429 1 24.9298 14.1611 1.81698 -3.54018 6.28057e-06
430 1 27.4086 10.9719 -3.60552 -3.5402 2.41744e-06
431 1 27.0557 12.7436 -1.79802 -3.54019 3.70375e-06
432 1 26.7025 14.5154 0.0094784 -3.54019 4.39126e-06
433 1 26.349 16.2873 1.81698 -3.54019 4.33813e-06
434 1 28.8284 13.0977 -3.60552 -3.5402 2.84213e-06
435 1 28.4749 14.8699 -1.79802 -3.5402 2.89098e-06
436 1 28.121 16.6421 0.0094786 -3.5402 2.65021e-06
437 1 27.7668 18.4145 1.81698 -3.5402 2.26736e-06
438 1 30.2469 15.2245 -3.60552 -3.54021 1.78653e-06
439 1 29.8928 16.997 -1.79802 -3.54021 1.58384e-06
440 1 31.6644 17.3518 -3.60552 -3.54021 9.92679e-07
441 1 7.18974 -17.0403 1.81698 -3.53986 0.00169154
442 1 8.97614 -16.6952 0.00947539 -3.53918 0.00119687
443 1 8.63978 -14.9245 1.81698 -3.53954 0.00165912
444 1 11.0968 -18.1105 -3.60552 -3.53957 0.000290242
445 1 10.7542 -16.3424 -1.79802 -3.53956 0.000595474
446 1 10.409 -14.5696 0.00947547 -3.54015 0.000389757
447 1 10.0602 -12.7924 1.81698 -3.54071 0.000100116
448 1 12.528 -15.9865 -3.60552 -3.53999 0.000189046
449 1 12.1786 -14.2134 -1.79802 -3.54034 8.29013e-05
450 1 11.8279 -12.4381 0.009476 -3.54053 4.74926e-05
451 1 11.4772 -10.6618 1.81698 -3.54033 2.35614e-05
452 1 13.9491 -13.8569 -3.60552 -3.54031 2.85693e-05
453 1 13.5974 -12.0828 -1.79802 -3.54031 2.91168e-05
454 1 13.2457 -10.3075 0.00947616 -3.5402 3.68858e-05
455 1 12.8932 -8.53102 1.81698 -3.54012 3.66287e-05
456 1 15.3674 -11.7266 -3.60552 -3.54021 2.27791e-05
457 1 15.0142 -9.95179 -1.79802 -3.5402 2.70164e-05
458 1 14.6602 -8.17569 0.0094763 -3.54023 1.90492e-05
459 1 14.3051 -6.39871 1.81698 -3.54028 9.66569e-06
460 1 16.783 -9.59538 -3.60552 -3.54022 1.3961e-05
461 1 16.428 -7.81989 -1.79802 -3.54026 1.09373e-05
462 1 16.0725 -6.04373 0.00947646 -3.54028 7.80624e-06
463 1 15.7166 -4.26732 1.81698 -3.54023 4.21598e-06
464 1 18.1967 -7.46392 -3.60552 -3.54025 6.73086e-06
465 1 17.8409 -5.68848 -1.79802 -3.54025 6.0263e-06
466 1 17.4848 -3.91269 0.00947667 -3.54022 4.69694e-06
467 1 17.1283 -2.13669 1.81698 -3.54021 5.23213e-06
468 1 19.6101 -5.33307 -3.60552 -3.54023 4.83192e-06
469 1 19.2539 -3.55787 -1.79802 -3.54024 5.74756e-06
470 1 18.8974 -1.78249 0.00947731 -3.54026 9.30493e-06
471 1 18.5407 -0.00725252 1.81698 -3.54029 1.75052e-05
472 1 21.0237 -3.20309 -3.60552 -3.54025 6.92006e-06
473 1 20.6675 -1.42845 -1.79802 -3.54027 1.09218e-05
474 1 20.3115 0.345981 0.00947753 -3.54028 1.43147e-05
475 1 19.9558 2.1199 1.81698 -3.54026 1.33222e-05
476 1 22.4386 -1.07454 -3.60552 -3.54027 9.23548e-06
477 1 22.0832 0.699168 -1.79802 -3.54026 9.31507e-06
478 1 21.7282 2.4725 0.00947773 -3.54024 7.06227e-06
479 1 21.3737 4.24535 1.81698 -3.54023 4.65385e-06
480 1 23.8555 1.05242 -3.60552 -3.54025 5.70187e-06
481 1 23.501 2.82528 -1.79802 -3.54024 4.21157e-06
482 1 23.147 4.59782 0.00947791 -3.54023 3.09009e-06
483 1 22.7933 6.36996 1.81698 -3.54023 2.7142e-06
484 1 25.2742 3.17828 -3.60552 -3.54024 2.66407e-06
485 1 24.9204 4.95053 -1.79802 -3.54023 1.98506e-06
486 1 24.567 6.72249 0.00947808 -3.54023 1.45736e-06
487 1 24.214 8.49411 1.81698 -3.54022 1.18143e-06
488 1 26.6939 5.3035 -3.60552 -3.54023 1.08447e-06
489 1 26.3408 7.07533 -1.79802 -3.54022 7.19771e-07
490 1 25.9879 8.84696 0.00947829 -3.54021 9.01853e-07
491 1 25.6352 10.6184 1.81698 -3.5402 2.18224e-06
492 1 28.1144 7.42853 -3.60552 -3.54022 5.76804e-07
493 1 27.7614 9.20023 -1.79802 -3.54021 1.18532e-06
494 1 27.4086 10.9719 0.0094785 -3.5402 2.41744e-06
495 1 27.0557 12.7436 1.81698 -3.54019 3.70375e-06
496 1 29.5347 9.55388 -3.60552 -3.54021 1.47647e-06
497 1 29.1816 11.3258 -1.79802 -3.5402 2.33337e-06
498 1 28.8284 13.0977 0.00947869 -3.5402 2.84213e-06
499 1 28.4749 14.8699 1.81698 -3.5402 2.89098e-06
500 1 30.9543 11.6799 -3.60552 -3.54021 1.97254e-06
501 1 30.6007 13.4521 -1.79802 -3.54021 1.95978e-06
502 1 30.2469 15.2245 0.00947887 -3.54021 1.78653e-06
503 1 29.8928 16.997 1.81698 -3.54021 1.58384e-06
504 1 32.3728 13.8067 -3.60552 -3.54021 1.17373e-06
505 1 32.0188 15.5792 -1.79802 -3.54021 1.08336e-06
506 1 31.6644 17.3518 0.00947901 -3.54021 9.92679e-07
507 1 33.7905 15.9339 -3.60552 -3.54021 7.87863e-07
508 1 33.436 17.7067 -1.79802 -3.54022 6.94864e-07
509 1 35.2075 18.0615 -3.60552 -3.54023 4.48094e-07
510 1 11.0968 -18.1105 0.00947594 -3.53957 0.000290242
511 1 10.7542 -16.3424 1.81698 -3.53956 0.000595474
512 1 12.8755 -17.7566 -1.79802 -3.5398 0.00021155
513 1 12.528 -15.9865 0.00947607 -3.53999 0.000189046
514 1 12.1786 -14.2134 1.81698 -3.54034 8.29013e-05
515 1 14.6511 -17.4006 -3.60552 -3.54003 9.41242e-05
516 1 14.3006 -15.6297 -1.79802 -3.54019 5.43764e-05
517 1 13.9491 -13.8569 0.0094762 -3.54031 2.85693e-05
518 1 13.5974 -12.0828 1.81698 -3.54031 2.91168e-05
519 1 16.0728 -15.2727 -3.60552 -3.54023 2.06247e-05
520 1 15.7202 -13.5002 -1.79802 -3.54024 1.7107e-05
521 1 15.3674 -11.7266 0.00947639 -3.54021 2.27791e-05
522 1 15.0142 -9.95179 1.81698 -3.5402 2.70164e-05
523 1 17.4913 -13.1433 -3.60552 -3.54021 1.20501e-05
524 1 17.1374 -11.3699 -1.79802 -3.5402 1.43815e-05
525 1 16.783 -9.59538 0.00947659 -3.54022 1.3961e-05
526 1 16.428 -7.81989 1.81698 -3.54026 1.09373e-05
527 1 18.9074 -11.013 -3.60552 -3.54021 7.13503e-06
528 1 18.5522 -9.23881 -1.79802 -3.54024 6.79425e-06
529 1 18.1967 -7.46392 0.00947679 -3.54025 6.73086e-06
530 1 17.8409 -5.68848 1.81698 -3.54025 6.0263e-06
531 1 20.322 -8.88231 -3.60552 -3.54023 3.43479e-06
532 1 19.9661 -7.10792 -1.79802 -3.54024 4.21074e-06
533 1 19.6101 -5.33307 0.00947741 -3.54023 4.83192e-06
534 1 19.2539 -3.55787 1.81698 -3.54024 5.74756e-06
535 1 21.7361 -6.75201 -3.60552 -3.54023 2.89624e-06
536 1 21.38 -4.97768 -1.79802 -3.54024 4.38724e-06
537 1 21.0237 -3.20309 0.00947762 -3.54025 6.92006e-06
538 1 20.6675 -1.42845 1.81698 -3.54027 1.09218e-05
539 1 23.1505 -4.62245 -3.60552 -3.54024 4.38909e-06
540 1 22.7945 -2.84847 -1.79802 -3.54026 6.99453e-06
541 1 22.4386 -1.07454 0.0094778 -3.54027 9.23548e-06
542 1 22.0832 0.699168 1.81698 -3.54026 9.31507e-06
543 1 24.5659 -2.49404 -3.60552 -3.54025 5.83747e-06
544 1 24.2105 -0.720707 -1.79802 -3.54025 6.49428e-06
545 1 23.8555 1.05242 0.009478 -3.54025 5.70187e-06
546 1 23.501 2.82528 1.81698 -3.54024 4.21157e-06
547 1 25.9829 -0.366895 -3.60552 -3.54024 4.20674e-06
548 1 25.6283 1.40579 -1.79802 -3.54024 3.50564e-06
549 1 25.2742 3.17828 0.00947821 -3.54024 2.66407e-06
550 1 24.9204 4.95053 1.81698 -3.54023 1.98506e-06
551 1 27.4014 1.75927 -3.60552 -3.54023 2.08947e-06
552 1 27.0475 3.53147 -1.79802 -3.54023 1.56902e-06
553 1 26.6939 5.3035 0.0094784 -3.54023 1.08447e-06
554 1 26.3408 7.07533 1.81698 -3.54022 7.19771e-07
555 1 28.8209 3.88487 -3.60552 -3.54023 8.20609e-07
556 1 28.4675 5.65675 -1.79802 -3.54022 5.73429e-07
557 1 28.1144 7.42853 0.0094786 -3.54022 5.76804e-07
558 1 27.7614 9.20023 1.81698 -3.54021 1.18532e-06
559 1 30.2409 6.01029 -3.60552 -3.54022 4.04236e-07
560 1 29.8877 7.78208 -1.79802 -3.54021 7.2025e-07
561 1 29.5347 9.55388 0.00947879 -3.54021 1.47647e-06
562 1 29.1816 11.3258 1.81698 -3.5402 2.33337e-06
563 1 31.6609 8.13593 -3.60552 -3.54021 9.38777e-07
564 1 31.3076 9.90785 -1.79802 -3.54021 1.60946e-06
565 1 30.9543 11.6799 0.00947894 -3.54021 1.97254e-06
566 1 30.6007 13.4521 1.81698 -3.54021 1.95978e-06
567 1 33.0803 10.2621 -3.60552 -3.54021 1.50727e-06
568 1 32.7266 12.0343 -1.79802 -3.54021 1.37509e-06
569 1 32.3728 13.8067 0.00947906 -3.54021 1.17373e-06
570 1 32.0188 15.5792 1.81698 -3.54021 1.08336e-06
571 1 34.4988 12.3889 -3.60552 -3.54021 6.80663e-07
572 1 34.1448 14.1613 -1.79802 -3.54021 6.66361e-07
573 1 33.7905 15.9339 0.00947916 -3.54021 7.87863e-07
574 1 33.436 17.7067 1.81698 -3.54022 6.94864e-07
575 1 35.9167 14.5161 -3.60552 -3.54021 6.16276e-07
576 1 35.5623 16.2887 -1.79802 -3.54023 8.13665e-07