ITEM: TIMESTEP
0
ITEM: NUMBER OF ATOMS
2504
ITEM: BOX BOUNDS xy xz yz mm pp pp
-5.5498871899999997e+01 5.5498871899999997e+01 0.0000000000000000e+00
-1.8432957300000002e+01 1.8432957300000002e+01 0.0000000000000000e+00
-3.6150000000000002e+00 3.6150000000000002e+00 0.0000000000000000e+00
ITEM: ATOMS id type x y z c_eng c_csym
1 1 0.629685 16.7836 -3.59723 -3.43786 3.49502
2 1 0.293434 -18.262 -1.78973 -3.27919 8.99646
3 1 0.973666 13.0614 -3.59723 -3.50477 0.286074
4 1 0.838567 14.8215 -1.78973 -3.50398 0.581031
5 1 0.629685 16.7836 0.017767 -3.43786 3.49502
6 1 0.293434 -18.262 1.82527 -3.27919 8.99646
7 1 2.56612 15.1857 -3.59723 -3.53994 0.117969
8 1 2.27974 17.0287 -1.78973 -3.51824 0.0876226
9 1 3.96465 17.3833 -3.59723 -3.54366 0.0310281
10 1 0.475673 7.39006 -3.59723 -3.52313 0.465509
11 1 0.135545 9.12792 -1.78973 -3.4146 1.39138
12 1 1.78352 9.5893 -3.59723 -3.51355 0.141771
13 1 1.30794 11.3598 -1.78973 -3.51559 0.255911
14 1 0.973666 13.0614 0.017767 -3.50477 0.286074
15 1 0.838567 14.8215 1.82527 -3.50398 0.581031
16 1 3.16998 11.6899 -3.59723 -3.52789 0.0290177
17 1 2.86917 13.4083 -1.78973 -3.5181 0.059789
18 1 2.56612 15.1857 0.0177671 -3.53994 0.117969
19 1 2.27974 17.0287 1.82527 -3.51824 0.0876226
20 1 4.66524 13.7813 -3.59723 -3.53374 0.0125901
21 1 4.32397 15.5584 -1.78973 -3.53769 0.0177655
22 1 3.96465 17.3833 0.0177671 -3.54366 0.0310281
23 1 6.07872 15.9314 -3.59723 -3.54117 0.00365456
24 1 5.71794 17.7208 -1.78973 -3.54505 0.0163538
25 1 7.50636 18.0561 -3.59723 -3.54179 0.00432261
26 1 1.12275 3.78353 -3.59723 -3.54161 0.0588388
27 1 0.807796 5.57423 -1.78973 -3.54566 0.0216352
28 1 0.475673 7.39006 0.017767 -3.52313 0.46539
29 1 0.135545 9.12792 1.82527 -3.41558 1.39138
30 1 2.56143 5.94622 -3.59723 -3.54105 0.0147034
31 1 2.21611 7.74145 -1.78973 -3.52461 0.0360391
32 1 1.78352 9.5893 0.0177671 -3.51355 0.141771
33 1 1.30794 11.3598 1.82527 -3.51562 0.255911
34 1 3.92999 8.13551 -3.59723 -3.54242 0.012315
35 1 3.53127 9.93125 -1.78973 -3.54281 0.0463349
36 1 3.16998 11.6899 0.0177671 -3.52789 0.0290177
37 1 2.86917 13.4083 1.82527 -3.5181 0.059789
38 1 5.32854 10.2687 -3.59723 -3.54134 0.0069115
39 1 4.99587 12.0227 -1.78973 -3.53438 0.00550166
40 1 4.66524 13.7813 0.0177679 -3.53374 0.0125901
41 1 4.32397 15.5584 1.82527 -3.53769 0.0177655
42 1 6.78713 12.3774 -3.59723 -3.53776 0.00251551
43 1 6.43961 14.148 -1.78973 -3.53798 0.00195991
44 1 6.07872 15.9314 0.0177679 -3.54117 0.00365456
45 1 5.71794 17.7208 1.82527 -3.54505 0.0163538
46 1 8.21035 14.5107 -3.59723 -3.54053 0.000507393
47 1 7.85267 16.2855 -1.78973 -3.54163 0.00311486
48 1 7.50636 18.0561 0.017768 -3.54179 0.00432261
49 1 9.64002 16.6327 -3.59723 -3.5408 0.00114891
50 1 9.30237 18.3953 -1.78973 -3.53984 0.000684006
51 1 0.496664 -1.84928 -3.59723 -3.52727 0.294506
52 1 0.167883 -0.133287 -1.78973 -3.45265 0.738856
53 1 1.91313 0.27956 -3.59723 -3.5311 0.0393102
54 1 1.50618 2.03428 -1.78973 -3.53259 0.0362537
55 1 1.12275 3.78353 0.017767 -3.54161 0.0587204
56 1 0.807796 5.57423 1.82527 -3.54476 0.0216352
57 1 3.2915 2.4249 -3.59723 -3.53593 0.00294023
58 1 2.92219 4.17701 -1.78973 -3.53744 0.00397215
59 1 2.56143 5.94622 0.0177671 -3.54105 0.0147034
60 1 2.21611 7.74145 1.82527 -3.52476 0.0360391
61 1 4.6975 4.5649 -3.59723 -3.53774 0.00142244
62 1 4.32306 6.33661 -1.78973 -3.53776 0.00462873
63 1 3.92999 8.13551 0.0177671 -3.54242 0.012315
64 1 3.53127 9.93125 1.82527 -3.54281 0.0463349
65 1 6.07842 6.72328 -3.59723 -3.54098 0.0024048
66 1 5.69273 8.50063 -1.78973 -3.54333 0.00991934
67 1 5.32854 10.2687 0.0177679 -3.54134 0.0069115
68 1 4.99587 12.0227 1.82527 -3.53438 0.00550166
69 1 7.48076 8.85647 -3.59723 -3.54086 0.00234961
70 1 7.12935 10.6156 -1.78973 -3.53888 0.000775562
71 1 6.78713 12.3774 0.017768 -3.53776 0.00251551
72 1 6.43961 14.148 1.82527 -3.53798 0.00195991
73 1 8.91906 10.9724 -3.59723 -3.53903 0.000440808
74 1 8.56693 12.7381 -1.78973 -3.53941 0.000464721
75 1 8.21035 14.5107 0.017768 -3.54053 0.000507393
76 1 7.85267 16.2855 1.82527 -3.54163 0.00311486
77 1 10.3454 13.0981 -3.59723 -3.54035 0.000125326
78 1 9.9896 14.8663 -1.78973 -3.54096 0.000790674
79 1 9.64002 16.6327 0.017768 -3.5408 0.00114891
80 1 9.30237 18.3953 1.82527 -3.53984 0.000684006
81 1 11.7755 15.2183 -3.59723 -3.54053 0.000354698
82 1 11.4309 16.9805 -1.78973 -3.54003 0.000217144
83 1 13.219 17.3317 -3.59723 -3.53975 0.000167548
84 1 1.17862 -5.38788 -3.59723 -3.53625 0.107037
85 1 0.833976 -3.64099 -1.78973 -3.55059 0.0439454
86 1 0.496664 -1.84928 0.017767 -3.52727 0.294388
87 1 0.167883 -0.133287 1.82527 -3.4528 0.738856
88 1 2.6247 -3.24437 -3.59723 -3.54264 0.0122157
89 1 2.28178 -1.49969 -1.78973 -3.53446 0.0136444
90 1 1.91313 0.27956 0.0177671 -3.53111 0.039251
91 1 1.50618 2.03428 1.82527 -3.53284 0.0362537
92 1 4.04856 -1.10392 -3.59723 -3.54144 0.00214715
93 1 3.67083 0.659634 -1.78973 -3.54044 0.000988355
94 1 3.2915 2.4249 0.0177671 -3.53593 0.00294023
95 1 2.92219 4.17701 1.82527 -3.53759 0.00397215
96 1 5.44139 1.03987 -3.59723 -3.54115 0.000305434
97 1 5.06906 2.80089 -1.78973 -3.53927 0.00025332
98 1 4.6975 4.5649 0.0177679 -3.53774 0.00142244
99 1 4.32306 6.33661 1.82527 -3.53776 0.00462873
100 1 6.84044 3.17785 -3.59723 -3.53952 0.000358684
101 1 6.46368 4.94673 -1.78973 -3.5391 0.00050166
102 1 6.07842 6.72328 0.0177679 -3.54098 0.0024048
103 1 5.69273 8.50063 1.82527 -3.54333 0.00991934
104 1 8.22912 5.32117 -3.59723 -3.54049 0.000777279
105 1 7.84993 7.0915 -1.78973 -3.54129 0.00259014
106 1 7.48076 8.85647 0.017768 -3.54086 0.00234961
107 1 7.12935 10.6156 1.82527 -3.53888 0.000775562
108 1 9.63224 7.4504 -3.59723 -3.54045 0.000927985
109 1 9.27197 9.21157 -1.78973 -3.53957 0.000233595
110 1 8.91906 10.9724 0.017768 -3.53903 0.000440808
111 1 8.56693 12.7381 1.82527 -3.53941 0.000464721
112 1 11.0583 9.5682 -3.59723 -3.53951 7.3681e-05
113 1 10.7021 11.3316 -1.78973 -3.53967 7.1829e-05
114 1 10.3454 13.0981 0.0177681 -3.54035 0.000125326
115 1 9.9896 14.8663 1.82527 -3.54096 0.000790674
116 1 12.4833 11.6892 -3.59723 -3.54012 4.19017e-05
117 1 12.1274 13.4542 -1.78973 -3.5405 0.000219227
118 1 11.7755 15.2183 0.0177689 -3.54053 0.000354698
119 1 11.4309 16.9805 1.82527 -3.54003 0.000217144
120 1 13.9118 13.8077 -3.59723 -3.5403 0.000119095
121 1 13.5629 15.57 -1.78973 -3.5401 7.96113e-05
122 1 13.219 17.3317 0.0177689 -3.53975 0.000167548
123 1 15.3483 15.9229 -3.59723 -3.53992 6.69261e-05
124 1 15.0026 17.6862 -1.78973 -3.53978 0.00019365
125 1 16.7822 18.0425 -3.59723 -3.5399 0.000148291
126 1 0.713429 -10.8936 -3.59723 -3.46348 2.78804
127 1 0.441755 -9.1311 -1.78973 -3.30192 8.13068
128 1 2.09422 -8.80029 -3.59723 -3.49668 0.31025
129 1 1.64551 -7.0422 -1.78973 -3.49216 0.291553
130 1 1.17862 -5.38788 0.017767 -3.53625 0.106919
131 1 0.833976 -3.64099 1.82527 -3.54979 0.0439454
132 1 3.41469 -6.69216 -3.59723 -3.5289 0.0601278
133 1 3.01687 -4.95675 -1.78973 -3.529 0.0280721
134 1 2.6247 -3.24437 0.0177671 -3.54264 0.0122157
135 1 2.28178 -1.49969 1.82527 -3.53468 0.0136444
136 1 4.80242 -4.59458 -3.59723 -3.5351 0.0138518
137 1 4.42714 -2.85097 -1.78973 -3.53571 0.00585692
138 1 4.04856 -1.10392 0.0177679 -3.54144 0.00214715
139 1 3.67083 0.659634 1.82527 -3.54051 0.000988355
140 1 6.19995 -2.47916 -3.59723 -3.53771 0.00398283
141 1 5.82074 -0.719266 -1.78973 -3.53988 0.00112826
142 1 5.44139 1.03987 0.0177679 -3.54115 0.000305434
143 1 5.06906 2.80089 1.82527 -3.53927 0.00025332
144 1 7.58978 -0.350384 -3.59723 -3.53948 0.00128695
145 1 7.21496 1.41378 -1.78973 -3.53969 0.000496352
146 1 6.84044 3.17785 0.017768 -3.53952 0.000358684
147 1 6.46368 4.94673 1.82527 -3.5391 0.00050166
148 1 8.98357 1.78077 -3.59723 -3.53938 0.000561181
149 1 8.60829 3.55031 -1.78973 -3.53964 0.000332264
150 1 8.22912 5.32117 0.017768 -3.54049 0.000777279
151 1 7.84993 7.0915 1.82527 -3.54129 0.00259014
152 1 10.3758 3.91483 -3.59723 -3.54007 0.000528649
153 1 10.0017 5.68482 -1.78973 -3.54057 0.000973001
154 1 9.63224 7.4504 0.017768 -3.54045 0.000927985
155 1 9.27197 9.21157 1.82527 -3.53957 0.000233595
156 1 11.7791 6.04102 -3.59723 -3.54022 0.000522779
157 1 11.4164 7.80576 -1.78973 -3.53986 0.000214324
158 1 11.0583 9.5682 0.0177688 -3.53951 7.3681e-05
159 1 10.7021 11.3316 1.82527 -3.53967 7.1829e-05
160 1 13.1982 8.15971 -3.59723 -3.53979 9.36285e-05
161 1 12.8405 9.92441 -1.78973 -3.5398 4.00442e-05
162 1 12.4833 11.6892 0.0177689 -3.54012 4.19017e-05
163 1 12.1274 13.4542 1.82527 -3.5405 0.000219227
164 1 14.6208 10.2787 -3.59723 -3.54006 5.63086e-05
165 1 14.2651 12.0439 -1.78973 -3.54025 8.97027e-05
166 1 13.9118 13.8077 0.0177689 -3.5403 0.000119095
167 1 13.5629 15.57 1.82527 -3.5401 7.96113e-05
168 1 16.0472 12.3964 -3.59723 -3.5402 6.39878e-05
169 1 15.6962 14.1601 -1.78973 -3.5401 4.21882e-05
170 1 15.3483 15.9229 0.017769 -3.53992 6.69261e-05
171 1 15.0026 17.6862 1.82527 -3.53978 0.00019365
172 1 17.4787 14.5128 -3.59723 -3.54001 4.10014e-05
173 1 17.1302 16.2772 -1.78973 -3.53991 9.0679e-05
174 1 16.7822 18.0425 0.0177691 -3.5399 0.000148291
175 1 18.9088 16.6325 -3.59723 -3.53998 8.2161e-05
176 1 18.5586 18.3998 -1.78973 -3.54002 9.09279e-05
177 1 1.00445 -14.5278 -3.59723 -3.48722 0.454901
178 1 0.895064 -12.7858 -1.78973 -3.52517 0.453367
179 1 0.713429 -10.8936 0.017767 -3.46348 2.78804
180 1 0.441755 -9.1311 1.82527 -3.30025 8.13068
181 1 2.66558 -12.4596 -3.59723 -3.54263 0.126377
182 1 2.41775 -10.6626 -1.78973 -3.53152 0.0891921
183 1 2.09422 -8.80029 0.0177671 -3.49669 0.31019
184 1 1.64551 -7.0422 1.82527 -3.49276 0.291553
185 1 4.13053 -10.3115 -3.59723 -3.54409 0.0220802
186 1 3.78632 -8.49496 -1.78973 -3.54002 0.0118028
187 1 3.41469 -6.69216 0.0177671 -3.5289 0.0601278
188 1 3.01687 -4.95675 1.82527 -3.52913 0.0280721
189 1 5.52002 -8.15818 -3.59723 -3.5437 0.00273469
190 1 5.16682 -6.3667 -1.78973 -3.53992 0.00483945
191 1 4.80242 -4.59458 0.0177679 -3.5351 0.0138518
192 1 4.42714 -2.85097 1.82527 -3.53571 0.00585692
193 1 6.92263 -6.02782 -3.59723 -3.5409 0.000291294
194 1 6.5674 -4.2486 -1.78973 -3.53861 0.00254393
195 1 6.19995 -2.47916 0.0177679 -3.53771 0.00398283
196 1 5.82074 -0.719266 1.82527 -3.53988 0.00112826
197 1 8.32552 -3.89907 -3.59723 -3.53994 0.000372254
198 1 7.96165 -2.12113 -1.78973 -3.53947 0.00119839
199 1 7.58978 -0.350384 0.017768 -3.53948 0.00128695
200 1 7.21496 1.41378 1.82527 -3.53969 0.000496352
201 1 9.72159 -1.76681 -3.59723 -3.54006 0.000277787
202 1 9.35481 0.009293 -1.78973 -3.53961 0.000593399
203 1 8.98357 1.78077 0.017768 -3.53938 0.000561181
204 1 8.60829 3.55031 1.82527 -3.53964 0.000332264
205 1 11.1175 0.365627 -3.59723 -3.53984 0.000208498
206 1 10.7487 2.14162 -1.78973 -3.53972 0.000349821
207 1 10.3758 3.91483 0.0177688 -3.54007 0.000528649
208 1 10.0017 5.68482 1.82527 -3.54057 0.000973001
209 1 12.514 2.49769 -3.59723 -3.54012 0.000273515
210 1 12.146 4.27169 -1.78973 -3.54025 0.000509898
211 1 11.7791 6.04102 0.0177689 -3.54022 0.000522779
212 1 11.4164 7.80576 1.82527 -3.53986 0.000214324
213 1 13.9187 4.62393 -3.59723 -3.54022 0.000283501
214 1 13.5574 6.3935 -1.78973 -3.54001 0.00020473
215 1 13.1982 8.15971 0.0177689 -3.53979 9.36285e-05
216 1 12.8405 9.92441 1.82527 -3.5398 4.00442e-05
217 1 15.3347 6.74448 -3.59723 -3.54 8.6585e-05
218 1 14.9776 8.51239 -1.78973 -3.53994 6.4051e-05
219 1 14.6208 10.2787 0.017769 -3.54006 5.63086e-05
220 1 14.2651 12.0439 1.82527 -3.54025 8.97027e-05
221 1 16.7556 8.86381 -3.59723 -3.5401 5.14086e-05
222 1 16.4007 10.631 -1.78973 -3.54017 6.31837e-05
223 1 16.0472 12.3964 0.0177691 -3.5402 6.39878e-05
224 1 15.6962 14.1601 1.82527 -3.5401 4.21882e-05
225 1 18.1802 10.9821 -3.59723 -3.54018 4.11731e-05
226 1 17.8286 12.7481 -1.78973 -3.54012 3.41313e-05
227 1 17.4787 14.5128 0.0177691 -3.54001 4.10014e-05
228 1 17.1302 16.2772 1.82527 -3.53991 9.0679e-05
229 1 19.6083 13.0999 -3.59723 -3.54009 2.82699e-05
230 1 19.2584 14.8662 -1.78973 -3.54001 5.21135e-05
231 1 18.9088 16.6325 0.0177692 -3.53998 8.2161e-05
232 1 18.5586 18.3998 1.82527 -3.54002 9.09279e-05
233 1 21.0356 15.2201 -3.59723 -3.54005 4.89726e-05
234 1 20.6847 16.9883 -1.78973 -3.54006 5.86844e-05
235 1 22.4588 17.3442 -3.59723 -3.54011 3.75149e-05
236 1 1.89394 -17.9161 -3.59723 -3.4521 0.614003
237 1 1.37308 -16.1378 -1.78973 -3.44202 0.674857
238 1 1.00445 -14.5278 0.017767 -3.48722 0.454901
239 1 0.895064 -12.7858 1.82527 -3.52517 0.453367
240 1 3.25828 -15.8683 -3.59723 -3.51749 0.0935049
241 1 2.95901 -14.1772 -1.78973 -3.50893 0.0625521
242 1 2.66558 -12.4596 0.0177671 -3.54263 0.126377
243 1 2.41775 -10.6626 1.82527 -3.53159 0.0891921
244 1 4.78083 -13.8417 -3.59723 -3.53044 0.0204194
245 1 4.46302 -12.0957 -1.78973 -3.53522 0.0215489
246 1 4.13053 -10.3115 0.0177679 -3.54409 0.0220802
247 1 3.78632 -8.49496 1.82527 -3.54008 0.0118028
248 1 6.22661 -11.7317 -3.59723 -3.53782 0.00375055
249 1 5.87441 -9.95033 -1.78973 -3.5421 0.00185176
250 1 5.52002 -8.15818 0.0177679 -3.5437 0.00273469
251 1 5.16682 -6.3667 1.82527 -3.53992 0.00483945
252 1 7.62932 -9.59403 -3.59723 -3.5406 0.000135566
253 1 7.27494 -7.81125 -1.78973 -3.54149 0.000404916
254 1 6.92263 -6.02782 0.017768 -3.5409 0.000291294
255 1 6.5674 -4.2486 1.82527 -3.53861 0.00254393
256 1 9.03546 -7.46096 -3.59723 -3.54031 1.71536e-05
257 1 8.68199 -5.6801 -1.78973 -3.54033 9.09268e-05
258 1 8.32552 -3.89907 0.017768 -3.53994 0.000372254
259 1 7.96165 -2.12113 1.82527 -3.53947 0.00119839
260 1 10.4418 -5.32815 -3.59723 -3.5401 5.07086e-05
261 1 10.0838 -3.54685 -1.78973 -3.54023 7.61273e-05
262 1 9.72159 -1.76681 0.017768 -3.54006 0.000277787
263 1 9.35481 0.009293 1.82527 -3.53961 0.000593399
264 1 11.8435 -3.1935 -3.59723 -3.54019 2.8193e-05
265 1 11.4822 -1.41301 -1.78973 -3.54011 7.43634e-05
266 1 11.1175 0.365627 0.0177688 -3.53984 0.000208498
267 1 10.7487 2.14162 1.82527 -3.53972 0.000349821
268 1 13.2438 -1.05919 -3.59723 -3.54011 3.46951e-05
269 1 12.8803 0.720257 -1.78973 -3.54008 0.000102797
270 1 12.514 2.49769 0.0177689 -3.54012 0.000273515
271 1 12.146 4.27169 1.82527 -3.54025 0.000509898
272 1 14.6448 1.07334 -3.59723 -3.54024 0.00010285
273 1 14.2817 2.85031 -1.78973 -3.54029 0.000216962
274 1 13.9187 4.62393 0.0177689 -3.54022 0.000283501
275 1 13.5574 6.3935 1.82527 -3.54001 0.00020473
276 1 16.0519 3.20103 -3.59723 -3.54029 0.000129657
277 1 15.6927 4.9742 -1.78973 -3.54017 0.000119317
278 1 15.3347 6.74448 0.017769 -3.54 8.6585e-05
279 1 14.9776 8.51239 1.82527 -3.53994 6.4051e-05
280 1 17.4671 5.32393 -3.59723 -3.54016 5.04913e-05
281 1 17.1111 7.09481 -1.78973 -3.54009 4.54386e-05
282 1 16.7556 8.86381 0.0177691 -3.5401 5.14086e-05
283 1 16.4007 10.631 1.82527 -3.54017 6.31837e-05
284 1 18.8872 7.4448 -3.59723 -3.54018 2.8895e-05
285 1 18.5333 9.21431 -1.78973 -3.54019 3.741e-05
286 1 18.1802 10.9821 0.0177692 -3.54018 4.11731e-05
287 1 17.8286 12.7481 1.82527 -3.54012 3.41313e-05
288 1 20.3106 9.56449 -3.59723 -3.54021 2.02862e-05
289 1 19.959 11.3328 -1.78973 -3.54016 2.12739e-05
290 1 19.6083 13.0999 0.01777 -3.54009 2.82699e-05
291 1 19.2584 14.8662 1.82527 -3.54001 5.21135e-05
292 1 21.7365 11.6839 -3.59723 -3.54015 1.49965e-05
293 1 21.3861 13.4521 -1.78973 -3.54009 2.98154e-05
294 1 21.0356 15.2201 0.0177701 -3.54005 4.89726e-05
295 1 20.6847 16.9883 1.82527 -3.54006 5.86844e-05
296 1 23.162 13.8051 -3.59723 -3.54011 2.76317e-05
297 1 22.8108 15.5745 -1.78973 -3.5401 3.71466e-05
298 1 22.4588 17.3442 0.0177702 -3.54011 3.75149e-05
299 1 24.5843 15.9292 -3.59723 -3.54014 2.50194e-05
300 1 24.2315 17.7001 -1.78973 -3.54015 2.28619e-05
301 1 26.0033 18.0559 -3.59723 -3.54017 1.36008e-05
302 1 1.89394 -17.9161 0.0177671 -3.4521 0.614003
303 1 1.37308 -16.1378 1.82527 -3.44202 0.674857
304 1 3.60076 -17.6513 -1.78973 -3.54106 0.0727236
305 1 3.25828 -15.8683 0.0177671 -3.51749 0.0935049
306 1 2.95901 -14.1772 1.82527 -3.50893 0.0625521
307 1 5.38232 -17.3598 -3.59723 -3.54427 0.0138919
308 1 5.08154 -15.5935 -1.78973 -3.53565 0.00808608
309 1 4.78083 -13.8417 0.0177679 -3.53044 0.0204194
310 1 4.46302 -12.0957 1.82527 -3.53522 0.0215489
311 1 6.87415 -15.2781 -3.59723 -3.53846 0.00463998
312 1 6.56095 -13.5073 -1.78973 -3.53664 0.00753789
313 1 6.22661 -11.7317 0.0177679 -3.53782 0.00375055
314 1 5.87441 -9.95033 1.82527 -3.5421 0.00185176
315 1 8.32408 -13.1612 -3.59723 -3.53928 0.00206594
316 1 7.98193 -11.3777 -1.78973 -3.53963 0.00051372
317 1 7.62932 -9.59403 0.017768 -3.5406 0.000135566
318 1 7.27494 -7.81125 1.82527 -3.54149 0.000404916
319 1 9.739 -11.0258 -3.59723 -3.54035 0.000109353
320 1 9.38827 -9.24247 -1.78973 -3.54024 3.55539e-05
321 1 9.03546 -7.46096 0.017768 -3.54031 1.71536e-05
322 1 8.68199 -5.6801 1.82527 -3.54033 9.09268e-05
323 1 11.1491 -8.89087 -3.59723 -3.5402 2.90905e-05
324 1 10.7966 -7.10938 -1.78973 -3.54002 2.833e-05
325 1 10.4418 -5.32815 0.0177688 -3.5401 5.07086e-05
326 1 10.0838 -3.54685 1.82527 -3.54023 7.61273e-05
327 1 12.5579 -6.75627 -3.59723 -3.54008 3.48041e-05
328 1 12.2021 -4.97482 -1.78973 -3.54011 2.75368e-05
329 1 11.8435 -3.1935 0.0177689 -3.54019 2.8193e-05
330 1 11.4822 -1.41301 1.82527 -3.54011 7.43634e-05
331 1 13.9633 -4.62077 -3.59723 -3.54015 1.91027e-05
332 1 13.6047 -2.83973 -1.78973 -3.54015 1.73312e-05
333 1 13.2438 -1.05919 0.0177689 -3.54011 3.46951e-05
334 1 12.8803 0.720257 1.82527 -3.54008 0.000102797
335 1 15.3672 -2.48575 -3.59723 -3.54017 1.85221e-05
336 1 15.0069 -0.7057 -1.78973 -3.54019 3.85665e-05
337 1 14.6448 1.07334 0.017769 -3.54024 0.00010285
338 1 14.2817 2.85031 1.82527 -3.54029 0.000216962
339 1 16.772 -0.352779 -3.59723 -3.54027 5.29048e-05
340 1 16.4119 1.42512 -1.78973 -3.54031 9.64718e-05
341 1 16.0519 3.20103 0.0177691 -3.54029 0.000129657
342 1 15.6927 4.9742 1.82527 -3.54017 0.000119317
343 1 18.1813 1.77616 -3.59723 -3.5403 6.83652e-05
344 1 17.8238 3.55104 -1.78973 -3.54025 6.43843e-05
345 1 17.4671 5.32393 0.0177691 -3.54016 5.04913e-05
346 1 17.1111 7.09481 1.82527 -3.54009 4.54386e-05
347 1 19.5966 3.90106 -3.59723 -3.54023 3.24732e-05
348 1 19.2416 5.67368 -1.78973 -3.54019 2.62549e-05
349 1 18.8872 7.4448 0.01777 -3.54018 2.8895e-05
350 1 18.5333 9.21431 1.82527 -3.54019 3.741e-05
351 1 21.0163 6.02364 -3.59723 -3.54023 1.62744e-05
352 1 20.6631 7.79473 -1.78973 -3.54022 1.78199e-05
353 1 20.3106 9.56449 0.0177701 -3.54021 2.02862e-05
354 1 19.959 11.3328 1.82527 -3.54016 2.12739e-05
355 1 22.439 8.14494 -3.59723 -3.54023 8.774e-06
356 1 22.0874 9.91491 -1.78973 -3.5402 9.35253e-06
357 1 21.7365 11.6839 0.0177702 -3.54015 1.49965e-05
358 1 21.3861 13.4521 1.82527 -3.54009 2.98154e-05
359 1 23.8635 10.266 -3.59723 -3.54019 6.50801e-06
360 1 23.5127 12.0357 -1.78973 -3.54015 1.50328e-05
361 1 23.162 13.8051 0.0177702 -3.54011 2.76317e-05
362 1 22.8108 15.5745 1.82527 -3.5401 3.71466e-05
363 1 25.2877 12.3883 -3.59723 -3.54016 1.47675e-05
364 1 24.9363 14.1587 -1.78973 -3.54014 2.19552e-05
365 1 24.5843 15.9292 0.0177703 -3.54014 2.50194e-05
366 1 24.2315 17.7001 1.82527 -3.54015 2.28619e-05
367 1 26.7095 14.5128 -3.59723 -3.54017 1.57051e-05
368 1 26.3568 16.2842 -1.78973 -3.54017 1.57751e-05
369 1 26.0033 18.0559 0.0177704 -3.54017 1.36008e-05
370 1 28.1285 16.6393 -3.59723 -3.54018 9.5331e-06
371 1 27.7744 18.4117 -1.78973 -3.54019 7.89255e-06
372 1 3.60076 -17.6513 1.82527 -3.54106 0.0727236
373 1 5.38232 -17.3598 0.0177679 -3.54427 0.0138919
374 1 5.08154 -15.5935 1.82527 -3.53565 0.00808608
375 1 7.18271 -17.0447 -1.78973 -3.5403 0.00252542
376 1 6.87415 -15.2781 0.017768 -3.53846 0.00463998
377 1 6.56095 -13.5073 1.82527 -3.53664 0.00753789
378 1 8.97602 -16.708 -3.59723 -3.53914 0.00178232
379 1 8.65335 -14.9393 -1.78973 -3.5391 0.0031686
380 1 8.32408 -13.1612 0.017768 -3.53928 0.00206594
381 1 7.98193 -11.3777 1.82527 -3.53963 0.00051372
382 1 10.4252 -14.5878 -3.59723 -3.5397 0.00133935
383 1 10.0852 -12.809 -1.78973 -3.54021 0.000598926
384 1 9.739 -11.0258 0.017768 -3.54035 0.000109353
385 1 9.38827 -9.24247 1.82527 -3.54024 3.55539e-05
386 1 11.8484 -12.4536 -3.59723 -3.54039 0.000233514
387 1 11.4997 -10.6727 -1.78973 -3.54042 9.1238e-05
388 1 11.1491 -8.89087 0.0177688 -3.5402 2.90905e-05
389 1 10.7966 -7.10938 1.82527 -3.54002 2.833e-05
390 1 13.2631 -10.3177 -3.59723 -3.54033 8.18824e-05
391 1 12.9113 -8.53743 -1.78973 -3.5402 4.97782e-05
392 1 12.5579 -6.75627 0.0177689 -3.54008 3.48041e-05
393 1 12.2021 -4.97482 1.82527 -3.54011 2.75368e-05
394 1 14.6747 -8.18209 -3.59723 -3.54021 5.05258e-05
395 1 14.32 -6.40177 -1.78973 -3.54017 3.23369e-05
396 1 13.9633 -4.62077 0.0177689 -3.54015 1.91027e-05
397 1 13.6047 -2.83973 1.82527 -3.54015 1.73312e-05
398 1 16.0833 -6.04621 -3.59723 -3.54021 2.76665e-05
399 1 15.726 -4.26611 -1.78973 -3.54019 1.85088e-05
400 1 15.3672 -2.48575 0.017769 -3.54017 1.85221e-05
401 1 15.0069 -0.7057 1.82527 -3.54019 3.85665e-05
402 1 17.4903 -3.91106 -3.59723 -3.54023 2.1006e-05
403 1 17.1316 -2.13177 -1.78973 -3.54023 2.78665e-05
404 1 16.772 -0.352779 0.0177691 -3.54027 5.29048e-05
405 1 16.4119 1.42512 1.82527 -3.54031 9.64718e-05
406 1 18.898 -1.77796 -3.59723 -3.54028 3.64352e-05
407 1 18.5395 -0.000373335 -1.78973 -3.5403 5.46859e-05
408 1 18.1813 1.77616 0.0177692 -3.5403 6.83652e-05
409 1 17.8238 3.55104 1.82527 -3.54025 6.43843e-05
410 1 20.3091 0.351765 -3.59723 -3.5403 4.37206e-05
411 1 19.9524 2.12702 -1.78973 -3.54028 4.1574e-05
412 1 19.5966 3.90106 0.01777 -3.54023 3.24732e-05
413 1 19.2416 5.67368 1.82527 -3.54019 2.62549e-05
414 1 21.7248 2.47806 -3.59723 -3.54026 2.5073e-05
415 1 21.3702 4.25136 -1.78973 -3.54024 1.89047e-05
416 1 21.0163 6.02364 0.0177701 -3.54023 1.62744e-05
417 1 20.6631 7.79473 1.82527 -3.54022 1.78199e-05
418 1 23.1443 4.60206 -3.59723 -3.54025 1.20009e-05
419 1 22.7913 6.37395 -1.78973 -3.54024 9.74051e-06
420 1 22.439 8.14494 0.0177702 -3.54023 8.774e-06
421 1 22.0874 9.91491 1.82527 -3.5402 9.35253e-06
422 1 24.5663 6.72477 -3.59723 -3.54024 4.89203e-06
423 1 24.2146 8.49569 -1.78973 -3.54022 3.92171e-06
424 1 23.8635 10.266 0.0177703 -3.54019 6.50801e-06
425 1 23.5127 12.0357 1.82527 -3.54015 1.50328e-05
426 1 25.9898 8.84717 -3.59723 -3.54021 3.12407e-06
427 1 25.6387 10.6178 -1.78973 -3.54018 7.36329e-06
428 1 25.2877 12.3883 0.0177703 -3.54016 1.47675e-05
429 1 24.9363 14.1587 1.82527 -3.54014 2.19552e-05
430 1 27.4131 10.9704 -3.59723 -3.54018 8.22664e-06
431 1 27.0615 12.7415 -1.78973 -3.54017 1.28334e-05
432 1 26.7095 14.5128 0.0177704 -3.54017 1.57051e-05
433 1 26.3568 16.2842 1.82527 -3.54017 1.57751e-05
434 1 28.8345 13.0954 -3.59723 -3.54018 1.00034e-05
435 1 28.4818 14.8672 -1.78973 -3.54018 1.04409e-05
436 1 28.1285 16.6393 0.0177705 -3.54018 9.5331e-06
437 1 27.7744 18.4117 1.82527 -3.54019 7.89255e-06
438 1 30.2536 15.222 -3.59723 -3.54019 6.54962e-06
439 1 29.8998 16.9945 -1.78973 -3.5402 5.61849e-06
440 1 31.6708 17.3498 -3.59723 -3.54021 3.34631e-06
441 1 7.18271 -17.0447 1.82527 -3.5403 0.00252542
442 1 8.97602 -16.708 0.017768 -3.53914 0.00178232
443 1 8.65335 -14.9393 1.82527 -3.5391 0.0031686
444 1 11.0936 -18.1238 -3.59723 -3.53941 0.000504062
445 1 10.7601 -16.3591 -1.78973 -3.53927 0.00127584
446 1 10.4252 -14.5878 0.0177681 -3.5397 0.00133935
447 1 10.0852 -12.809 1.82527 -3.54021 0.000598926
448 1 12.5375 -16.0037 -3.59723 -3.53967 0.000640687
449 1 12.1945 -14.2311 -1.78973 -3.54005 0.000470864
450 1 11.8484 -12.4536 0.0177689 -3.54039 0.000233514
451 1 11.4997 -10.6727 1.82527 -3.54042 9.1238e-05
452 1 13.9635 -13.8726 -3.59723 -3.54019 0.000172916
453 1 13.6138 -12.0965 -1.78973 -3.54034 0.000116286
454 1 13.2631 -10.3177 0.0177689 -3.54033 8.18824e-05
455 1 12.9113 -8.53743 1.82527 -3.5402 4.97782e-05
456 1 15.3808 -11.7383 -3.59723 -3.54027 6.51454e-05
457 1 15.0282 -9.96109 -1.78973 -3.54025 6.22339e-05
458 1 14.6747 -8.18209 0.017769 -3.54021 5.05258e-05
459 1 14.32 -6.40177 1.82527 -3.54017 3.23369e-05
460 1 16.7943 -9.60335 -3.59723 -3.54022 4.08339e-05
461 1 16.4393 -7.82546 -1.78973 -3.54022 3.76785e-05
462 1 16.0833 -6.04621 0.0177691 -3.54021 2.76665e-05
463 1 15.726 -4.26611 1.82527 -3.54019 1.85088e-05
464 1 18.205 -7.46817 -3.59723 -3.54023 2.43279e-05
465 1 17.848 -5.69003 -1.78973 -3.54023 2.23483e-05
466 1 17.4903 -3.91106 0.0177691 -3.54023 2.1006e-05
467 1 17.1316 -2.13177 1.82527 -3.54023 2.78665e-05
468 1 19.6142 -5.33365 -3.59723 -3.54025 1.86681e-05
469 1 19.2563 -3.55591 -1.78973 -3.54026 2.45096e-05
470 1 18.898 -1.77796 0.01777 -3.54028 3.64352e-05
471 1 18.5395 -0.000373335 1.82527 -3.5403 5.46859e-05
472 1 21.0241 -3.20091 -3.59723 -3.54028 2.62544e-05
473 1 20.6664 -1.42437 -1.78973 -3.5403 3.67226e-05
474 1 20.3091 0.351765 0.0177701 -3.5403 4.37206e-05
475 1 19.9524 2.12702 1.82527 -3.54028 4.1574e-05
476 1 22.4365 -1.07096 -3.59723 -3.54029 3.01178e-05
477 1 22.0802 0.70388 -1.78973 -3.54028 3.03227e-05
478 1 21.7248 2.47806 0.0177702 -3.54026 2.5073e-05
479 1 21.3702 4.25136 1.82527 -3.54024 1.89047e-05
480 1 23.8526 1.05612 -3.59723 -3.54027 1.98996e-05
481 1 23.498 2.82941 -1.78973 -3.54025 1.58209e-05
482 1 23.1443 4.60206 0.0177702 -3.54025 1.20009e-05
483 1 22.7913 6.37395 1.82527 -3.54024 9.74051e-06
484 1 25.2718 3.18112 -3.59723 -3.54025 9.90748e-06
485 1 24.9187 4.95322 -1.78973 -3.54025 7.17037e-06
486 1 24.5663 6.72477 0.0177703 -3.54024 4.89203e-06
487 1 24.2146 8.49569 1.82527 -3.54022 3.92171e-06
488 1 26.6933 5.30488 -3.59723 -3.54024 3.74776e-06
489 1 26.3413 7.07621 -1.78973 -3.54023 2.43475e-06
490 1 25.9898 8.84717 0.0177704 -3.54021 3.12407e-06
491 1 25.6387 10.6178 1.82527 -3.54018 7.36329e-06
492 1 28.116 7.42832 -3.59723 -3.54021 2.03281e-06
493 1 27.7645 9.19941 -1.78973 -3.5402 4.10143e-06
494 1 27.4131 10.9704 0.0177705 -3.54018 8.22664e-06
495 1 27.0615 12.7415 1.82527 -3.54017 1.28334e-05
496 1 29.5385 9.55236 -3.59723 -3.5402 5.05391e-06
497 1 29.1866 11.3238 -1.78973 -3.54019 7.98019e-06
498 1 28.8345 13.0954 0.0177705 -3.54018 1.00034e-05
499 1 28.4818 14.8672 1.82527 -3.54018 1.04409e-05
500 1 30.9596 11.6777 -3.59723 -3.5402 6.77395e-06
501 1 30.6069 13.4497 -1.78973 -3.54019 7.06983e-06
502 1 30.2536 15.222 0.0177706 -3.54019 6.54962e-06
503 1 29.8998 16.9945 1.82527 -3.5402 5.61849e-06
504 1 32.3788 13.8043 -3.59723 -3.5402 4.51471e-06
505 1 32.0251 15.5769 -1.78973 -3.5402 3.99491e-06
506 1 31.6708 17.3498 0.0177707 -3.54021 3.34631e-06
507 1 33.7963 15.932 -3.59723 -3.54021 2.63099e-06
508 1 33.4417 17.705 -1.78973 -3.54022 2.06906e-06
509 1 35.2126 18.0602 -3.59723 -3.54023 1.16927e-06
510 1 11.0936 -18.1238 0.0177688 -3.53941 0.000504062
511 1 10.7601 -16.3591 1.82527 -3.53927 0.00127584
512 1 12.8782 -17.7709 -1.78973 -3.53955 0.000478591
513 1 12.5375 -16.0037 0.0177689 -3.53967 0.000640687
514 1 12.1945 -14.2311 1.82527 -3.54005 0.000470864
515 1 14.6576 -17.4143 -3.59723 -3.5398 0.000301096
516 1 14.3115 -15.6454 -1.78973 -3.53997 0.000268367
517 1 13.9635 -13.8726 0.0177689 -3.54019 0.000172916
518 1 13.6138 -12.0965 1.82527 -3.54034 0.000116286
519 1 16.0838 -15.2861 -3.59723 -3.54012 0.000109689
520 1 15.7328 -13.5134 -1.78973 -3.54022 7.4816e-05
521 1 15.3808 -11.7383 0.017769 -3.54027 6.51454e-05
522 1 15.0282 -9.96109 1.82527 -3.54025 6.22339e-05
523 1 17.5023 -13.154 -3.59723 -3.54021 3.74522e-05
524 1 17.1486 -11.3796 -1.78973 -3.54022 3.79088e-05
525 1 16.7943 -9.60335 0.0177691 -3.54022 4.08339e-05
526 1 16.4393 -7.82546 1.82527 -3.54022 3.76785e-05
527 1 18.9168 -11.0207 -3.59723 -3.54021 2.11263e-05
528 1 18.5612 -9.24512 -1.78973 -3.54022 2.36653e-05
529 1 18.205 -7.46817 0.0177692 -3.54023 2.43279e-05
530 1 17.848 -5.69003 1.82527 -3.54023 2.23483e-05
531 1 20.3288 -8.88686 -3.59723 -3.54022 1.25505e-05
532 1 19.9718 -7.11073 -1.78973 -3.54023 1.52497e-05
533 1 19.6142 -5.33365 0.01777 -3.54025 1.86681e-05
534 1 19.2563 -3.55591 1.82527 -3.54026 2.45096e-05
535 1 21.7397 -6.75348 -3.59723 -3.54024 1.07616e-05
536 1 21.3819 -4.97741 -1.78973 -3.54026 1.71978e-05
537 1 21.0241 -3.20091 0.0177701 -3.54028 2.62544e-05
538 1 20.6664 -1.42437 1.82527 -3.5403 3.67226e-05
539 1 23.1509 -4.62152 -3.59723 -3.54027 1.63641e-05
540 1 22.7935 -2.8462 -1.78973 -3.54028 2.43203e-05
541 1 22.4365 -1.07096 0.0177702 -3.54029 3.01178e-05
542 1 22.0802 0.70388 1.82527 -3.54028 3.03227e-05
543 1 24.5643 -2.49179 -3.59723 -3.54027 1.9719e-05
544 1 24.208 -0.717661 -1.78973 -3.54027 2.17353e-05
545 1 23.8526 1.05612 0.0177703 -3.54027 1.98996e-05
546 1 23.498 2.82941 1.82527 -3.54025 1.58209e-05
547 1 25.9806 -0.364398 -3.59723 -3.54026 1.45824e-05
548 1 25.6258 1.40855 -1.78973 -3.54025 1.26846e-05
549 1 25.2718 3.18112 0.0177703 -3.54025 9.90748e-06
550 1 24.9187 4.95322 1.82527 -3.54025 7.17037e-06
551 1 27.3995 1.76118 -3.59723 -3.54024 7.62193e-06
552 1 27.0461 3.53319 -1.78973 -3.54024 5.67075e-06
553 1 26.6933 5.30488 0.0177704 -3.54024 3.74776e-06
554 1 26.3413 7.07621 1.82527 -3.54023 2.43475e-06
555 1 28.8205 3.88566 -3.59723 -3.54023 2.88006e-06
556 1 28.468 5.65708 -1.78973 -3.54023 1.95597e-06
557 1 28.116 7.42832 0.0177705 -3.54021 2.03281e-06
558 1 27.7645 9.19941 1.82527 -3.5402 4.10143e-06
559 1 30.2424 6.00981 -3.59723 -3.54021 1.4361e-06
560 1 29.8903 7.78107 -1.78973 -3.5402 2.57381e-06
561 1 29.5385 9.55236 0.0177706 -3.5402 5.05391e-06
562 1 29.1866 11.3238 1.82527 -3.54019 7.98019e-06
563 1 31.6642 8.13439 -3.59723 -3.5402 3.23104e-06
564 1 31.312 9.90591 -1.78973 -3.5402 5.3534e-06
565 1 30.9596 11.6777 0.0177706 -3.5402 6.77395e-06
566 1 30.6069 13.4497 1.82527 -3.54019 7.06983e-06
567 1 33.085 10.2599 -3.59723 -3.5402 4.90005e-06
568 1 32.7321 12.032 -1.78973 -3.5402 4.95466e-06
569 1 32.3788 13.8043 0.0177707 -3.5402 4.51471e-06
570 1 32.0251 15.5769 1.82527 -3.5402 3.99491e-06
571 1 34.5042 12.3866 -3.59723 -3.5402 2.95193e-06
572 1 34.1504 14.1592 -1.78973 -3.5402 2.73185e-06
573 1 33.7963 15.932 0.0177707 -3.54021 2.63099e-06
574 1 33.4417 17.705 1.82527 -3.54022 2.06906e-06
575 1 35.922 14.5141 -3.59723 -3.54021 2.0659e-06
576 1 35.5675 16.287 -1.78973 -3.54022 2.10291e-06
577 1 35.2126 18.0602 0.0177707 -3.54023 1.16927e-06
578 1 37.3387 16.6421 -3.59723 -3.54024 1.71153e-06
579 1 36.9835 18.4154 -1.78973 -3.54023 2.71156e-07