ITEM: TIMESTEP
0
ITEM: NUMBER OF ATOMS
2504
ITEM: BOX BOUNDS xy xz yz mm pp pp
-5.5498871899999997e+01 5.5498871899999997e+01 0.0000000000000000e+00
-1.8432957300000002e+01 1.8432957300000002e+01 0.0000000000000000e+00
-3.6150000000000002e+00 3.6150000000000002e+00 0.0000000000000000e+00
ITEM: ATOMS id type x y z c_eng c_csym
1 1 0.63577 16.7343 -3.60849 -3.4431 3.64698
2 1 0.287311 -18.3196 -1.80099 -3.28608 9.14257
3 1 1.00816 13.0254 -3.60849 -3.48874 0.387973
4 1 0.876352 14.7761 -1.80099 -3.50377 0.590446
5 1 0.63577 16.7343 0.00651253 -3.4431 3.64698
6 1 0.287311 -18.3196 1.81401 -3.28608 9.14257
7 1 2.59747 15.1676 -3.60849 -3.54177 0.121249
8 1 2.29271 16.999 -1.80099 -3.52243 0.0769215
9 1 3.98482 17.3683 -3.60849 -3.54579 0.028736
10 1 0.579299 7.45284 -3.60849 -3.49418 2.16248
11 1 0.229419 9.23473 -1.80099 -3.31169 5.99211
12 1 1.85759 9.63515 -3.60849 -3.47955 0.428873
13 1 1.36567 11.3918 -1.80099 -3.46998 0.488107
14 1 1.00816 13.0254 0.00651278 -3.48874 0.387973
15 1 0.876352 14.7761 1.81401 -3.50377 0.590446
16 1 3.23712 11.7088 -3.60849 -3.52096 0.0501825
17 1 2.92739 13.4115 -1.80099 -3.51147 0.0793445
18 1 2.59747 15.1676 0.00651289 -3.54177 0.121249
19 1 2.29271 16.999 1.81401 -3.52243 0.0769215
20 1 4.71698 13.7912 -3.60849 -3.53273 0.0149796
21 1 4.35909 15.5596 -1.80099 -3.53819 0.0111515
22 1 3.98482 17.3683 0.00651301 -3.54579 0.028736
23 1 6.11373 15.938 -3.60849 -3.54081 0.00234113
24 1 5.74317 17.7191 -1.80099 -3.54473 0.0115766
25 1 7.52881 18.0636 -3.60849 -3.54113 0.00206249
26 1 1.06283 3.78646 -3.60849 -3.50701 0.28319
27 1 0.865069 5.54836 -1.80099 -3.52618 0.283462
28 1 0.579299 7.45284 0.00651253 -3.49418 2.16247
29 1 0.229419 9.23473 1.81401 -3.31195 5.99211
30 1 2.59575 5.94265 -3.60849 -3.54218 0.0708447
31 1 2.26938 7.75662 -1.80099 -3.52394 0.0499194
32 1 1.85759 9.63515 0.00651292 -3.47955 0.428873
33 1 1.36567 11.3918 1.81401 -3.46997 0.488107
34 1 3.97211 8.14033 -3.60849 -3.54531 0.0204522
35 1 3.58935 9.94448 -1.80099 -3.54321 0.0492774
36 1 3.23712 11.7088 0.00651305 -3.52096 0.0501825
37 1 2.92739 13.4115 1.81401 -3.51147 0.0793445
38 1 5.37802 10.271 -3.60849 -3.5427 0.00589023
39 1 5.05234 12.0301 -1.80099 -3.53461 0.00836596
40 1 4.71698 13.7912 0.00651342 -3.53273 0.0149796
41 1 4.35909 15.5596 1.81401 -3.53819 0.0111515
42 1 6.83234 12.3811 -3.60849 -3.53838 0.00314924
43 1 6.48201 14.1562 -1.80099 -3.53821 0.00189729
44 1 6.11373 15.938 0.00651347 -3.54081 0.00234113
45 1 5.74317 17.7191 1.81401 -3.54473 0.0115766
46 1 8.24477 14.5172 -3.60849 -3.54076 0.000387937
47 1 7.8829 16.2939 -1.80099 -3.54139 0.00213736
48 1 7.52881 18.0636 0.0065136 -3.54113 0.00206249
49 1 9.66238 16.643 -3.60849 -3.54075 0.000578768
50 1 9.31643 18.4093 -1.80099 -3.53965 0.000231397
51 1 0.586996 -1.77202 -3.60849 -3.49954 2.01365
52 1 0.241276 0.0018488 -1.80099 -3.32226 5.51217
53 1 1.90511 0.384477 -3.60849 -3.49277 0.354856
54 1 1.43836 2.13529 -1.80099 -3.48022 0.379816
55 1 1.06283 3.78646 0.00651278 -3.50701 0.283175
56 1 0.865069 5.54836 1.81401 -3.5259 0.283462
57 1 3.28168 2.47457 -3.60849 -3.52471 0.0350776
58 1 2.94683 4.18959 -1.80099 -3.5204 0.0465929
59 1 2.59575 5.94265 0.00651289 -3.54218 0.0708447
60 1 2.26938 7.75662 1.81401 -3.52398 0.0499194
61 1 4.72881 4.57476 -3.60849 -3.53402 0.00977288
62 1 4.35876 6.34114 -1.80099 -3.5381 0.00691763
63 1 3.97211 8.14033 0.00651301 -3.54531 0.0204522
64 1 3.58935 9.94448 1.81401 -3.54321 0.0492774
65 1 6.11362 6.72464 -3.60849 -3.54071 0.00230447
66 1 5.73392 8.50122 -1.80099 -3.54405 0.00950137
67 1 5.37802 10.271 0.00651347 -3.5427 0.00589023
68 1 5.05234 12.0301 1.81401 -3.53461 0.00836596
69 1 7.51943 8.85329 -3.60849 -3.54078 0.00163112
70 1 7.17269 10.6147 -1.80099 -3.53919 0.00109987
71 1 6.83234 12.3811 0.0065136 -3.53838 0.00314924
72 1 6.48201 14.1562 1.81401 -3.53821 0.00189729
73 1 8.95529 10.9701 -3.60849 -3.53912 0.000672581
74 1 8.60325 12.7404 -1.80099 -3.53976 0.000565745
75 1 8.24477 14.5172 0.00651365 -3.54076 0.000387937
76 1 7.8829 16.2939 1.81401 -3.54139 0.00213736
77 1 10.374 13.0996 -3.60849 -3.54048 7.92258e-05
78 1 10.0162 14.8724 -1.80099 -3.54107 0.000504745
79 1 9.66238 16.643 0.00651378 -3.54075 0.000578768
80 1 9.31643 18.4093 1.81401 -3.53965 0.000231397
81 1 11.7939 15.2251 -3.60849 -3.54059 0.000173182
82 1 11.444 16.9929 -1.80099 -3.54012 6.83023e-05
83 1 13.2233 17.3456 -3.60849 -3.53995 6.43819e-05
84 1 1.08331 -5.41349 -3.60849 -3.50173 0.307609
85 1 0.874669 -3.66766 -1.80099 -3.52985 0.283738
86 1 0.586996 -1.77202 0.00651253 -3.49954 2.01363
87 1 0.241276 0.0018488 1.81401 -3.32245 5.51217
88 1 2.61895 -3.26433 -3.60849 -3.54389 0.0652909
89 1 2.29346 -1.4689 -1.80099 -3.5298 0.0421703
90 1 1.90511 0.384477 0.00651292 -3.49277 0.354848
91 1 1.43836 2.13529 1.81401 -3.48056 0.379816
92 1 4.01559 -1.08457 -3.60849 -3.54592 0.0122297
93 1 3.64052 0.707785 -1.80099 -3.54259 0.023848
94 1 3.28168 2.47457 0.00651305 -3.52471 0.0350776
95 1 2.94683 4.18959 1.81401 -3.52044 0.0465929
96 1 5.4194 1.05001 -3.60849 -3.54254 0.00251328
97 1 5.07917 2.81168 -1.80099 -3.53623 0.00498609
98 1 4.72881 4.57476 0.00651342 -3.53402 0.00977288
99 1 4.35876 6.34114 1.81401 -3.5381 0.00691763
100 1 6.85189 3.17082 -3.60849 -3.539 0.00184112
101 1 6.49084 4.94527 -1.80099 -3.5386 0.001342
102 1 6.11362 6.72464 0.00651347 -3.54071 0.00230447
103 1 5.73392 8.50122 1.81401 -3.54405 0.00950137
104 1 8.25165 5.31058 -3.60849 -3.54075 0.000470254
105 1 7.8819 7.08567 -1.80099 -3.54126 0.00208953
106 1 7.51943 8.85329 0.0065136 -3.54078 0.00163112
107 1 7.17269 10.6147 1.81401 -3.53919 0.00109987
108 1 9.65953 7.43907 -3.60849 -3.54061 0.000541406
109 1 9.30528 9.20486 -1.80099 -3.53954 0.000161351
110 1 8.95529 10.9701 0.00651374 -3.53912 0.000672581
111 1 8.60325 12.7404 1.81401 -3.53976 0.000565745
112 1 11.085 9.5593 -3.60849 -3.53961 0.000110623
113 1 10.7308 11.3281 -1.80099 -3.53976 0.000127463
114 1 10.374 13.0996 0.00651383 -3.54048 7.92258e-05
115 1 10.0162 14.8724 1.81401 -3.54107 0.000504745
116 1 12.5048 11.685 -3.60849 -3.54023 1.26889e-05
117 1 12.1483 13.4556 -1.80099 -3.54057 0.000114528
118 1 11.7939 15.2251 0.00651427 -3.54059 0.000173182
119 1 11.444 16.9929 1.81401 -3.54012 6.83023e-05
120 1 13.925 13.8094 -3.60849 -3.54038 5.0674e-05
121 1 13.5729 15.5777 -1.80099 -3.5402 2.43728e-05
122 1 13.2233 17.3456 0.00651445 -3.53995 6.43819e-05
123 1 15.3506 15.9313 -3.60849 -3.54007 1.93748e-05
124 1 14.9998 17.7002 -1.80099 -3.54001 5.18487e-05
125 1 16.7745 18.0556 -3.60849 -3.54011 2.46136e-05
126 1 0.666477 -10.9254 -3.60849 -3.45301 3.36081
127 1 0.341696 -9.13445 -1.80099 -3.29669 8.70963
128 1 1.97151 -8.7819 -3.60849 -3.47573 0.518841
129 1 1.48945 -7.02985 -1.80099 -3.45696 0.532015
130 1 1.08331 -5.41349 0.00651278 -3.50173 0.307593
131 1 0.874669 -3.66766 1.81401 -3.52958 0.283738
132 1 3.32685 -6.70546 -3.60849 -3.52274 0.0639793
133 1 2.98155 -4.99656 -1.80099 -3.51735 0.0504692
134 1 2.61895 -3.26433 0.00651289 -3.54389 0.0652909
135 1 2.29346 -1.4689 1.81401 -3.52986 0.0421703
136 1 4.76728 -4.62082 -3.60849 -3.53324 0.013239
137 1 4.39692 -2.86474 -1.80099 -3.53776 0.00496722
138 1 4.01559 -1.08457 0.00651329 -3.54592 0.0122297
139 1 3.64052 0.707785 1.81401 -3.5426 0.023848
140 1 6.15818 -2.48669 -3.60849 -3.53956 0.00174693
141 1 5.78086 -0.716513 -1.80099 -3.54289 0.003601
142 1 5.4194 1.05001 0.00651347 -3.54254 0.00251328
143 1 5.07917 2.81168 1.81401 -3.53623 0.00498609
144 1 7.5594 -0.359662 -3.60849 -3.54031 0.000730734
145 1 7.20408 1.40358 -1.80099 -3.53949 0.000551012
146 1 6.85189 3.17082 0.0065136 -3.539 0.00184112
147 1 6.49084 4.94527 1.81401 -3.5386 0.001342
148 1 8.97894 1.76275 -3.60849 -3.53926 0.000440076
149 1 8.61842 3.53447 -1.80099 -3.53985 0.000299237
150 1 8.25165 5.31058 0.00651365 -3.54075 0.000470254
151 1 7.8819 7.08567 1.81401 -3.54126 0.00208953
152 1 10.3851 3.89534 -3.60849 -3.54038 0.000122169
153 1 10.0207 5.66881 -1.80099 -3.54092 0.000532719
154 1 9.65953 7.43907 0.00651378 -3.54061 0.000541406
155 1 9.30528 9.20486 1.81401 -3.53954 0.000161351
156 1 11.7952 6.02301 -3.60849 -3.54047 0.000196549
157 1 11.4387 7.79175 -1.80099 -3.54005 5.52946e-05
158 1 11.085 9.5593 0.00651419 -3.53961 0.000110623
159 1 10.7308 11.3281 1.81401 -3.53976 0.000127463
160 1 13.2157 8.1454 -3.60849 -3.53995 2.09947e-05
161 1 12.8607 9.91481 -1.80099 -3.53995 2.65861e-05
162 1 12.5048 11.685 0.00651434 -3.54023 1.26889e-05
163 1 12.1483 13.4556 1.81401 -3.54057 0.000114528
164 1 14.6352 10.2698 -3.60849 -3.54018 6.27745e-06
165 1 14.2796 12.04 -1.80099 -3.54035 3.0189e-05
166 1 13.925 13.8094 0.0065145 -3.54038 5.0674e-05
167 1 13.5729 15.5777 1.81401 -3.5402 2.43728e-05
168 1 16.0554 12.3937 -3.60849 -3.54029 1.81312e-05
169 1 15.7023 14.1628 -1.80099 -3.54021 1.05657e-05
170 1 15.3506 15.9313 0.00651474 -3.54007 1.93748e-05
171 1 14.9998 17.7002 1.81401 -3.54001 5.18487e-05
172 1 17.4786 14.5164 -3.60848 -3.54013 8.28255e-06
173 1 17.1266 16.2857 -1.80098 -3.54008 2.03195e-05
174 1 16.7745 18.0556 0.00651498 -3.54011 2.46136e-05
175 1 18.9011 16.6406 -3.60848 -3.54013 1.32074e-05
176 1 18.5481 18.4112 -1.80098 -3.54017 1.03241e-05
177 1 1.01945 -14.6019 -3.60849 -3.4805 0.480183
178 1 0.897067 -12.8579 -1.80099 -3.51254 0.538437
179 1 0.666477 -10.9254 0.00651253 -3.45301 3.36081
180 1 0.341696 -9.13445 1.81401 -3.2966 8.70963
181 1 2.63394 -12.4804 -3.60849 -3.54309 0.123551
182 1 2.34331 -10.6657 -1.80099 -3.52758 0.0744265
183 1 1.97151 -8.7819 0.00651292 -3.47573 0.518833
184 1 1.48945 -7.02985 1.81401 -3.4573 0.532015
185 1 4.04565 -10.2978 -3.60849 -3.54645 0.0201686
186 1 3.68287 -8.486 -1.80099 -3.54291 0.0305501
187 1 3.32685 -6.70546 0.00651305 -3.52274 0.0639793
188 1 2.98155 -4.99656 1.81401 -3.51739 0.0504692
189 1 5.44823 -8.1597 -3.60849 -3.54394 0.00388395
190 1 5.11502 -6.38688 -1.80099 -3.53697 0.00576136
191 1 4.76728 -4.62082 0.00651342 -3.53324 0.013239
192 1 4.39692 -2.86474 1.81401 -3.53776 0.00496722
193 1 6.88203 -6.04169 -3.60849 -3.53952 0.00150044
194 1 6.52887 -4.26346 -1.80099 -3.53841 0.00201265
195 1 6.15818 -2.48669 0.00651347 -3.53956 0.00174693
196 1 5.78086 -0.716513 1.81401 -3.54289 0.003601
197 1 8.287 -3.90728 -3.60849 -3.54053 0.000219351
198 1 7.92286 -2.1294 -1.80099 -3.54062 0.00103608
199 1 7.5594 -0.359662 0.0065136 -3.54031 0.000730734
200 1 7.20408 1.40358 1.81401 -3.53949 0.000551012
201 1 9.69229 -1.77768 -3.60849 -3.54049 0.000206083
202 1 9.33565 -0.00641154 -1.80099 -3.53958 0.000191614
203 1 8.97894 1.76275 0.00651374 -3.53926 0.000440076
204 1 8.61842 3.53447 1.81401 -3.53985 0.000299237
205 1 11.1067 0.347916 -3.60849 -3.53975 0.000101445
206 1 10.7479 2.12133 -1.80099 -3.53978 0.000109793
207 1 10.3851 3.89534 0.00651412 -3.54038 0.000122169
208 1 10.0207 5.66881 1.81401 -3.54092 0.000532719
209 1 12.516 2.4777 -3.60849 -3.54023 4.89184e-05
210 1 12.1551 4.25153 -1.80099 -3.54047 0.000169081
211 1 11.7952 6.02301 0.00651427 -3.54047 0.000196549
212 1 11.4387 7.79175 1.81401 -3.54005 5.52946e-05
213 1 13.9276 4.60495 -3.60849 -3.54034 8.24697e-05
214 1 13.5708 6.37591 -1.80099 -3.54015 3.84854e-05
215 1 13.2157 8.1454 0.00651445 -3.53995 2.09947e-05
216 1 12.8607 9.91481 1.81401 -3.53995 2.65861e-05
217 1 15.3457 6.72877 -3.60849 -3.54009 1.02094e-05
218 1 14.9906 8.49935 -1.80099 -3.54006 8.60252e-06
219 1 14.6352 10.2698 0.00651463 -3.54018 6.27745e-06
220 1 14.2796 12.04 1.81401 -3.54035 3.0189e-05
221 1 16.7648 8.85296 -3.60849 -3.54018 5.23614e-06
222 1 16.4098 10.6237 -1.80099 -3.54026 1.19783e-05
223 1 16.0554 12.3937 0.00651482 -3.54029 1.81312e-05
224 1 15.7023 14.1628 1.81401 -3.54021 1.05657e-05
225 1 18.1847 10.9769 -3.60848 -3.54025 8.14627e-06
226 1 17.8312 12.7469 -1.80098 -3.54021 6.23181e-06
227 1 17.4786 14.5164 0.00651508 -3.54013 8.28255e-06
228 1 17.1266 16.2857 1.81402 -3.54008 2.03195e-05
229 1 19.6064 13.1003 -3.60848 -3.54017 4.5652e-06
230 1 19.2538 14.8704 -1.80098 -3.54013 9.58723e-06
231 1 18.9011 16.6406 0.00651536 -3.54013 1.32074e-05
232 1 18.5481 18.4112 1.81402 -3.54017 1.03241e-05
233 1 21.0278 15.2247 -3.60848 -3.54016 7.51043e-06
234 1 20.6746 16.9956 -1.80098 -3.54017 7.42504e-06
235 1 22.4475 17.3506 -3.60848 -3.54019 4.38843e-06
236 1 1.89808 -17.9615 -3.60849 -3.45703 0.665939
237 1 1.38956 -16.202 -1.80099 -3.4343 0.719958
238 1 1.01945 -14.6019 0.00651278 -3.4805 0.480183
239 1 0.897067 -12.8579 1.81401 -3.51254 0.538437
240 1 3.2695 -15.9071 -3.60849 -3.51761 0.0782706
241 1 2.96033 -14.2145 -1.80099 -3.50859 0.0831008
242 1 2.63394 -12.4804 0.00651289 -3.54309 0.123551
243 1 2.34331 -10.6657 1.81401 -3.5276 0.0744265
244 1 4.75936 -13.8485 -3.60849 -3.53152 0.018943
245 1 4.41008 -12.0916 -1.80099 -3.53743 0.0115985
246 1 4.04565 -10.2978 0.00651329 -3.54645 0.0201686
247 1 3.68287 -8.486 1.81401 -3.54292 0.0305501
248 1 6.16796 -11.7164 -3.60849 -3.53972 0.0010055
249 1 5.80054 -9.93834 -1.80099 -3.54391 0.00448324
250 1 5.44823 -8.1597 0.00651347 -3.54394 0.00388395
251 1 5.11502 -6.38688 1.81401 -3.53697 0.00576136
252 1 7.5739 -9.5861 -3.60849 -3.54084 0.000583612
253 1 7.22607 -7.81603 -1.80099 -3.54027 0.000597673
254 1 6.88203 -6.04169 0.0065136 -3.53952 0.00150044
255 1 6.52887 -4.26346 1.81401 -3.53841 0.00201265
256 1 8.99797 -7.46299 -3.60849 -3.53959 0.000341503
257 1 8.64544 -5.68712 -1.80099 -3.54007 0.000350497
258 1 8.287 -3.90728 0.00651365 -3.54053 0.000219351
259 1 7.92286 -2.1294 1.81401 -3.54062 0.00103608
260 1 10.4093 -5.33086 -3.60849 -3.54038 3.7265e-05
261 1 10.0508 -3.55324 -1.80099 -3.5408 0.000140343
262 1 9.69229 -1.77768 0.00651378 -3.54049 0.000206083
263 1 9.33565 -0.00641154 1.81401 -3.53958 0.000191614
264 1 11.8188 -3.20008 -3.60849 -3.54047 3.55253e-05
265 1 11.4628 -1.42557 -1.80099 -3.54016 1.61725e-05
266 1 11.1067 0.347916 0.00651419 -3.53975 0.000101445
267 1 10.7479 2.12133 1.81401 -3.53978 0.000109793
268 1 13.2324 -1.07197 -3.60849 -3.54008 1.05109e-05
269 1 12.8753 0.702849 -1.80099 -3.54005 2.20389e-05
270 1 12.516 2.4777 0.00651434 -3.54023 4.89184e-05
271 1 12.1551 4.25153 1.81401 -3.54047 0.000169081
272 1 14.644 1.05736 -3.60849 -3.54025 1.36605e-05
273 1 14.2857 2.83191 -1.80099 -3.54036 5.66027e-05
274 1 13.9276 4.60495 0.0065145 -3.54034 8.24697e-05
275 1 13.5708 6.37591 1.81401 -3.54015 3.84854e-05
276 1 16.0571 3.18492 -3.60849 -3.54032 3.24092e-05
277 1 15.701 4.95747 -1.80099 -3.54022 2.24321e-05
278 1 15.3457 6.72877 0.00651474 -3.54009 1.02094e-05
279 1 14.9906 8.49935 1.81401 -3.54006 8.60252e-06
280 1 17.4744 5.31 -3.60848 -3.54018 5.58608e-06
281 1 17.1196 7.08173 -1.80098 -3.54014 4.11977e-06
282 1 16.7648 8.85296 0.00651498 -3.54018 5.23614e-06
283 1 16.4098 10.6237 1.81401 -3.54026 1.19783e-05
284 1 18.8932 7.43467 -3.60848 -3.5402 2.82363e-06
285 1 18.5388 9.20611 -1.80098 -3.54023 5.68348e-06
286 1 18.1847 10.9769 0.00651523 -3.54025 8.14627e-06
287 1 17.8312 12.7469 1.81402 -3.54021 6.23181e-06
288 1 20.3129 9.55902 -3.60848 -3.54023 3.48301e-06
289 1 19.9594 11.3299 -1.80098 -3.54021 3.42742e-06
290 1 19.6064 13.1003 0.00651576 -3.54017 4.5652e-06
291 1 19.2538 14.8704 1.81402 -3.54013 9.58723e-06
292 1 21.7337 11.6831 -3.60848 -3.54019 2.24008e-06
293 1 21.3808 13.4539 -1.80098 -3.54017 4.84195e-06
294 1 21.0278 15.2247 0.00651602 -3.54016 7.51043e-06
295 1 20.6746 16.9956 1.81402 -3.54017 7.42504e-06
296 1 23.1544 13.8079 -3.60848 -3.54018 4.10466e-06
297 1 22.8011 15.5792 -1.80098 -3.54018 4.93403e-06
298 1 22.4475 17.3506 0.00651623 -3.54019 4.38843e-06
299 1 24.5739 15.9337 -3.60848 -3.54019 3.1313e-06
300 1 24.22 17.7056 -1.80098 -3.5402 2.78372e-06
301 1 25.9921 18.0605 -3.60848 -3.5402 1.77385e-06
302 1 1.89808 -17.9615 0.00651292 -3.45703 0.665939
303 1 1.38956 -16.202 1.81401 -3.4343 0.719958
304 1 3.61483 -17.6804 -1.80099 -3.54312 0.0593598
305 1 3.2695 -15.9071 0.00651305 -3.51761 0.0782706
306 1 2.96033 -14.2145 1.81401 -3.50859 0.0831008
307 1 5.39774 -17.3707 -3.60849 -3.54378 0.00817781
308 1 5.08375 -15.6071 -1.80099 -3.53502 0.00912191
309 1 4.75936 -13.8485 0.00651342 -3.53152 0.018943
310 1 4.41008 -12.0916 1.81401 -3.53743 0.0115985
311 1 6.86425 -15.2706 -3.60849 -3.53861 0.00382165
312 1 6.52651 -13.4954 -1.80099 -3.53774 0.00352278
313 1 6.16796 -11.7164 0.00651347 -3.53972 0.0010055
314 1 5.80054 -9.93834 1.81401 -3.54391 0.00448324
315 1 8.28647 -13.1405 -3.60849 -3.54037 0.000275457
316 1 7.9303 -11.3606 -1.80099 -3.54078 0.000564553
317 1 7.5739 -9.5861 0.0065136 -3.54084 0.000583612
318 1 7.22607 -7.81603 1.81401 -3.54027 0.000597673
319 1 9.69868 -11.0097 -3.60849 -3.54064 0.000116642
320 1 9.34792 -9.23583 -1.80099 -3.53983 5.6925e-05
321 1 8.99797 -7.46299 0.00651374 -3.53959 0.000341503
322 1 8.64544 -5.68712 1.81401 -3.54007 0.000350497
323 1 11.1183 -8.88324 -3.60849 -3.53986 7.57077e-05
324 1 10.7655 -7.1078 -1.80099 -3.53987 0.000100776
325 1 10.4093 -5.33086 0.00651412 -3.54038 3.7265e-05
326 1 10.0508 -3.55324 1.81401 -3.5408 0.000140343
327 1 12.5321 -6.75253 -3.60849 -3.5402 1.42077e-05
328 1 12.1757 -4.97596 -1.80099 -3.54042 2.46184e-05
329 1 11.8188 -3.20008 0.00651427 -3.54047 3.55253e-05
330 1 11.4628 -1.42557 1.81401 -3.54016 1.61725e-05
331 1 13.9439 -4.62188 -3.60849 -3.54032 9.26399e-06
332 1 13.5882 -2.84671 -1.80099 -3.54022 1.72789e-06
333 1 13.2324 -1.07197 0.00651445 -3.54008 1.05109e-05
334 1 12.8753 0.702849 1.81401 -3.54005 2.20389e-05
335 1 15.3576 -2.49275 -3.60849 -3.54016 1.37243e-06
336 1 15.0014 -0.717722 -1.80099 -3.54015 3.3907e-06
337 1 14.644 1.05736 0.00651463 -3.54025 1.36605e-05
338 1 14.2857 2.83191 1.81401 -3.54036 5.66027e-05
339 1 16.7708 -0.363556 -3.60849 -3.54024 5.84156e-06
340 1 16.4139 1.41108 -1.80099 -3.54031 2.01175e-05
341 1 16.0571 3.18492 0.00651482 -3.54032 3.24092e-05
342 1 15.701 4.95747 1.81401 -3.54022 2.24321e-05
343 1 18.1851 1.76429 -3.60848 -3.54029 1.43652e-05
344 1 17.8295 3.53757 -1.80098 -3.54025 1.16961e-05
345 1 17.4744 5.31 0.00651508 -3.54018 5.58608e-06
346 1 17.1196 7.08173 1.81402 -3.54014 4.11977e-06
347 1 19.6022 3.89029 -3.60848 -3.54022 3.9448e-06
348 1 19.2476 5.66271 -1.80098 -3.54019 2.16923e-06
349 1 18.8932 7.43467 0.00651564 -3.5402 2.82363e-06
350 1 18.5388 9.20611 1.81402 -3.54023 5.68348e-06
351 1 21.0208 6.01557 -3.60848 -3.54022 1.59662e-06
352 1 20.6667 7.78754 -1.80098 -3.54023 2.44455e-06
353 1 20.3129 9.55902 0.00651591 -3.54023 3.48301e-06
354 1 19.9594 11.3299 1.81402 -3.54021 3.42742e-06
355 1 22.4403 8.14045 -3.60848 -3.54023 1.3969e-06
356 1 22.0869 9.91197 -1.80098 -3.54022 1.44861e-06
357 1 21.7337 11.6831 0.00651615 -3.54019 2.24008e-06
358 1 21.3808 13.4539 1.81402 -3.54017 4.84195e-06
359 1 23.8606 10.2651 -3.60848 -3.54021 9.35218e-07
360 1 23.5075 12.0366 -1.80098 -3.54019 2.29151e-06
361 1 23.1544 13.8079 0.00651637 -3.54018 4.10466e-06
362 1 22.8011 15.5792 1.81402 -3.54018 4.93403e-06
363 1 25.2808 12.3903 -3.60848 -3.5402 2.14898e-06
364 1 24.9274 14.162 -1.80098 -3.54019 2.9855e-06
365 1 24.5739 15.9337 0.00651657 -3.54019 3.1313e-06
366 1 24.22 17.7056 1.81402 -3.5402 2.78372e-06
367 1 26.7001 14.5163 -3.60848 -3.5402 2.04093e-06
368 1 26.3462 16.2884 -1.80098 -3.5402 1.98313e-06
369 1 25.9921 18.0605 0.00651683 -3.5402 1.77385e-06
370 1 28.1183 16.6431 -3.60848 -3.54021 1.22473e-06
371 1 27.764 18.4155 -1.80098 -3.54021 1.08206e-06
372 1 3.61483 -17.6804 1.81401 -3.54312 0.0593598
373 1 5.39774 -17.3707 0.00651347 -3.54378 0.00817781
374 1 5.08375 -15.6071 1.81401 -3.53502 0.00912191
375 1 7.19225 -17.0387 -1.80099 -3.53969 0.00153104
376 1 6.86425 -15.2706 0.0065136 -3.53861 0.00382165
377 1 6.52651 -13.4954 1.81401 -3.53774 0.00352278
378 1 8.97618 -16.6907 -3.60849 -3.53917 0.00105256
379 1 8.63494 -14.9193 -1.80099 -3.53967 0.00126054
380 1 8.28647 -13.1405 0.00651365 -3.54037 0.000275457
381 1 7.9303 -11.3606 1.81401 -3.54078 0.000564553
382 1 10.4033 -14.5632 -3.60849 -3.54028 0.000201975
383 1 10.0513 -12.7865 -1.80099 -3.54084 9.02399e-05
384 1 9.69868 -11.0097 0.00651378 -3.54064 0.000116642
385 1 9.34792 -9.23583 1.81401 -3.53983 5.6925e-05
386 1 11.8206 -12.4325 -3.60849 -3.54056 3.35954e-05
387 1 11.4692 -10.6579 -1.80099 -3.54027 1.59566e-05
388 1 11.1183 -8.88324 0.00651419 -3.53986 7.57077e-05
389 1 10.7655 -7.1078 1.81401 -3.53987 0.000100776
390 1 13.2395 -10.3039 -3.60849 -3.54014 3.01457e-05
391 1 12.8867 -8.52874 -1.80099 -3.54008 3.75894e-05
392 1 12.5321 -6.75253 0.00651434 -3.5402 1.42077e-05
393 1 12.1757 -4.97596 1.81401 -3.54042 2.46184e-05
394 1 14.655 -8.1734 -3.60849 -3.54023 1.19624e-05
395 1 14.2998 -6.39762 -1.80099 -3.54031 7.50204e-06
396 1 13.9439 -4.62188 0.0065145 -3.54032 9.26399e-06
397 1 13.5882 -2.84671 1.81401 -3.54022 1.72789e-06
398 1 16.0686 -6.04284 -3.60849 -3.54029 4.93449e-06
399 1 15.7132 -4.26774 -1.80099 -3.54024 1.97835e-06
400 1 15.3576 -2.49275 0.00651474 -3.54016 1.37243e-06
401 1 15.0014 -0.717722 1.81401 -3.54015 3.3907e-06
402 1 17.4829 -3.91327 -3.60848 -3.54021 1.8218e-06
403 1 17.1271 -2.13845 -1.80098 -3.5402 1.84989e-06
404 1 16.7708 -0.363556 0.00651498 -3.54024 5.84156e-06
405 1 16.4139 1.41108 1.81401 -3.54031 2.01175e-05
406 1 18.8971 -1.78411 -3.60848 -3.54024 3.99698e-06
407 1 18.5411 -0.00970938 -1.80098 -3.54027 9.24695e-06
408 1 18.1851 1.76429 0.00651523 -3.54029 1.43652e-05
409 1 17.8295 3.53757 1.81402 -3.54025 1.16961e-05
410 1 20.3123 0.343915 -3.60848 -3.54027 7.69544e-06
411 1 19.957 2.11736 -1.80098 -3.54025 7.03435e-06
412 1 19.6022 3.89029 0.00651576 -3.54022 3.9448e-06
413 1 19.2476 5.66271 1.81402 -3.54019 2.16923e-06
414 1 21.7294 2.47051 -3.60848 -3.54023 3.31097e-06
415 1 21.375 4.24321 -1.80098 -3.54022 1.89614e-06
416 1 21.0208 6.01557 0.00651602 -3.54022 1.59662e-06
417 1 20.6667 7.78754 1.81402 -3.54023 2.44455e-06
418 1 23.1479 4.5963 -3.60848 -3.54023 1.31942e-06
419 1 22.794 6.36854 -1.80098 -3.54023 1.2591e-06
420 1 22.4403 8.14045 0.00651623 -3.54023 1.3969e-06
421 1 22.0869 9.91197 1.81402 -3.54022 1.44861e-06
422 1 24.5673 6.72167 -3.60848 -3.54023 7.21622e-07
423 1 24.2138 8.49354 -1.80098 -3.54022 5.9296e-07
424 1 23.8606 10.2651 0.00651648 -3.54021 9.35218e-07
425 1 23.5075 12.0366 1.81402 -3.54019 2.29151e-06
426 1 25.9872 8.84689 -3.60848 -3.54021 4.32755e-07
427 1 25.634 10.6186 -1.80098 -3.5402 1.07286e-06
428 1 25.2808 12.3903 0.00651673 -3.5402 2.14898e-06
429 1 24.9274 14.162 1.81402 -3.54019 2.9855e-06
430 1 27.407 10.9724 -3.60848 -3.5402 1.17904e-06
431 1 27.0536 12.7443 -1.80098 -3.5402 1.7755e-06
432 1 26.7001 14.5163 0.00651697 -3.5402 2.04093e-06
433 1 26.3462 16.2884 1.81402 -3.5402 1.98313e-06
434 1 28.8262 13.0986 -3.60848 -3.54021 1.34184e-06
435 1 28.4724 14.8708 -1.80098 -3.54021 1.33065e-06
436 1 28.1183 16.6431 0.00651721 -3.54021 1.22473e-06
437 1 27.764 18.4155 1.81402 -3.54021 1.08206e-06
438 1 30.2445 15.2254 -3.60848 -3.54021 8.09962e-07
439 1 29.8903 16.9978 -1.80098 -3.54021 7.42076e-07
440 1 31.6621 17.3526 -3.60848 -3.54021 4.88469e-07
441 1 7.19225 -17.0387 1.81401 -3.53969 0.00153104
442 1 8.97618 -16.6907 0.00651374 -3.53917 0.00105256
443 1 8.63494 -14.9193 1.81401 -3.53967 0.00126054
444 1 11.0979 -18.1057 -3.60849 -3.5396 0.000239104
445 1 10.7521 -16.3365 -1.80099 -3.53964 0.000424706
446 1 10.4033 -14.5632 0.00651383 -3.54028 0.000201975
447 1 10.0513 -12.7865 1.81401 -3.54084 9.02399e-05
448 1 12.5247 -15.9803 -3.60849 -3.54008 9.52016e-05
449 1 12.1729 -14.207 -1.80099 -3.54042 3.02307e-05
450 1 11.8206 -12.4325 0.00651427 -3.54056 3.35954e-05
451 1 11.4692 -10.6579 1.81401 -3.54027 1.59566e-05
452 1 13.944 -13.8513 -3.60849 -3.54034 9.16701e-06
453 1 13.5915 -12.0779 -1.80099 -3.54028 1.34109e-05
454 1 13.2395 -10.3039 0.00651445 -3.54014 3.01457e-05
455 1 12.8867 -8.52874 1.81401 -3.54008 3.75894e-05
456 1 15.3626 -11.7225 -3.60849 -3.54018 1.38774e-05
457 1 15.0092 -9.94847 -1.80099 -3.54017 1.96298e-05
458 1 14.655 -8.1734 0.00651463 -3.54023 1.19624e-05
459 1 14.2998 -6.39762 1.81401 -3.54031 7.50204e-06
460 1 16.7789 -9.59254 -3.60849 -3.54022 7.94455e-06
461 1 16.424 -7.8179 -1.80099 -3.54027 5.74005e-06
462 1 16.0686 -6.04284 0.00651482 -3.54029 4.93449e-06
463 1 15.7132 -4.26774 1.81401 -3.54024 1.97835e-06
464 1 18.1938 -7.4624 -3.60848 -3.54026 3.38951e-06
465 1 17.8384 -5.68793 -1.80098 -3.54025 2.84918e-06
466 1 17.4829 -3.91327 0.00651508 -3.54021 1.8218e-06
467 1 17.1271 -2.13845 1.81402 -3.5402 1.84989e-06
468 1 19.6086 -5.33287 -3.60848 -3.54023 2.09377e-06
469 1 19.253 -3.55857 -1.80098 -3.54022 2.29226e-06
470 1 18.8971 -1.78411 0.00651564 -3.54024 3.99698e-06
471 1 18.5411 -0.00970938 1.81402 -3.54027 9.24695e-06
472 1 21.0236 -3.20387 -3.60848 -3.54024 3.04526e-06
473 1 20.6679 -1.4299 -1.80098 -3.54026 5.39354e-06
474 1 20.3123 0.343915 0.00651591 -3.54027 7.69544e-06
475 1 19.957 2.11736 1.81402 -3.54025 7.03435e-06
476 1 22.4394 -1.07582 -3.60848 -3.54025 4.6863e-06
477 1 22.0842 0.697485 -1.80098 -3.54025 4.73496e-06
478 1 21.7294 2.47051 0.00651615 -3.54023 3.31097e-06
479 1 21.375 4.24321 1.81402 -3.54022 1.89614e-06
480 1 23.8566 1.0511 -3.60848 -3.54024 2.7152e-06
481 1 23.5021 2.82381 -1.80098 -3.54023 1.86358e-06
482 1 23.1479 4.5963 0.00651637 -3.54023 1.31942e-06
483 1 22.794 6.36854 1.81402 -3.54023 1.2591e-06
484 1 25.275 3.17727 -3.60848 -3.54023 1.19055e-06
485 1 24.921 4.94957 -1.80098 -3.54023 9.13755e-07
486 1 24.5673 6.72167 0.00651657 -3.54023 7.21622e-07
487 1 24.2138 8.49354 1.81402 -3.54022 5.9296e-07
488 1 26.6941 5.30301 -3.60848 -3.54023 5.2142e-07
489 1 26.3406 7.07502 -1.80098 -3.54022 3.54032e-07
490 1 25.9872 8.84689 0.00651683 -3.54021 4.32755e-07
491 1 25.634 10.6186 1.81402 -3.5402 1.07286e-06
492 1 28.1138 7.42861 -3.60848 -3.54022 2.72345e-07
493 1 27.7604 9.20053 -1.80098 -3.54021 5.68937e-07
494 1 27.407 10.9724 0.00651708 -3.5402 1.17904e-06
495 1 27.0536 12.7443 1.81402 -3.5402 1.7755e-06
496 1 29.5333 9.55443 -3.60848 -3.54021 7.16193e-07
497 1 29.1798 11.3265 -1.80098 -3.54021 1.13258e-06
498 1 28.8262 13.0986 0.00651731 -3.54021 1.34184e-06
499 1 28.4724 14.8708 1.81402 -3.54021 1.33065e-06
500 1 30.9524 11.6807 -3.60848 -3.54021 9.53666e-07
501 1 30.5985 13.453 -1.80098 -3.54021 9.03133e-07
502 1 30.2445 15.2254 0.00651754 -3.54021 8.09962e-07
503 1 29.8903 16.9978 1.81402 -3.54021 7.42076e-07
504 1 32.3707 13.8075 -3.60848 -3.54021 5.06238e-07
505 1 32.0165 15.58 -1.80098 -3.54021 4.88517e-07
506 1 31.6621 17.3526 0.00651771 -3.54021 4.88469e-07
507 1 33.7884 15.9347 -3.60848 -3.54022 3.91705e-07
508 1 33.4339 17.7073 -1.80098 -3.54022 3.81709e-07
509 1 35.2057 18.062 -3.60848 -3.54023 2.77144e-07
510 1 11.0979 -18.1057 0.00651419 -3.5396 0.000239104
511 1 10.7521 -16.3365 1.81401 -3.53964 0.000424706
512 1 12.8746 -17.7514 -1.80099 -3.53987 0.000144644
513 1 12.5247 -15.9803 0.00651434 -3.54008 9.52016e-05
514 1 12.1729 -14.207 1.81401 -3.54042 3.02307e-05
515 1 14.6487 -17.3957 -3.60849 -3.5401 4.91974e-05
516 1 14.2967 -15.624 -1.80099 -3.54025 1.831e-05
517 1 13.944 -13.8513 0.0065145 -3.54034 9.16701e-06
518 1 13.5915 -12.0779 1.81401 -3.54028 1.34109e-05
519 1 16.0688 -15.2679 -3.60849 -3.54026 6.15355e-06
520 1 15.7157 -13.4955 -1.80099 -3.54024 6.63254e-06
521 1 15.3626 -11.7225 0.00651474 -3.54018 1.38774e-05
522 1 15.0092 -9.94847 1.81401 -3.54017 1.96298e-05
523 1 17.4873 -13.1395 -3.60848 -3.5402 6.5289e-06
524 1 17.1333 -11.3664 -1.80098 -3.54019 9.07155e-06
525 1 16.7789 -9.59254 0.00651498 -3.54022 7.94455e-06
526 1 16.424 -7.8179 1.81401 -3.54027 5.74005e-06
527 1 18.9041 -11.0102 -3.60848 -3.54021 3.97711e-06
528 1 18.549 -9.23655 -1.80098 -3.54024 3.31548e-06
529 1 18.1938 -7.4624 0.00651523 -3.54026 3.38951e-06
530 1 17.8384 -5.68793 1.81402 -3.54025 2.84918e-06
531 1 20.3196 -8.88068 -3.60848 -3.54024 1.62587e-06
532 1 19.9641 -7.10692 -1.80098 -3.54024 1.98026e-06
533 1 19.6086 -5.33287 0.00651576 -3.54023 2.09377e-06
534 1 19.253 -3.55857 1.81402 -3.54022 2.29226e-06
535 1 21.7349 -6.75149 -3.60848 -3.54023 1.29803e-06
536 1 21.3793 -4.97778 -1.80098 -3.54023 1.8709e-06
537 1 21.0236 -3.20387 0.00651602 -3.54024 3.04526e-06
538 1 20.6679 -1.4299 1.81402 -3.54026 5.39354e-06
539 1 23.1504 -4.62278 -3.60848 -3.54023 1.96006e-06
540 1 22.7948 -2.84929 -1.80098 -3.54025 3.34353e-06
541 1 22.4394 -1.07582 0.00651623 -3.54025 4.6863e-06
542 1 22.0842 0.697485 1.81402 -3.54025 4.73496e-06
543 1 24.5665 -2.49484 -3.60848 -3.54024 2.86679e-06
544 1 24.2114 -0.721794 -1.80098 -3.54024 3.21731e-06
545 1 23.8566 1.0511 0.00651648 -3.54024 2.7152e-06
546 1 23.5021 2.82381 1.81402 -3.54023 1.86358e-06
547 1 25.9838 -0.367787 -3.60848 -3.54023 2.01584e-06
548 1 25.6292 1.40481 -1.80098 -3.54023 1.6108e-06
549 1 25.275 3.17727 0.00651673 -3.54023 1.19055e-06
550 1 24.921 4.94957 1.81402 -3.54023 9.13755e-07
551 1 27.4021 1.75859 -3.60848 -3.54023 9.5222e-07
552 1 27.048 3.53086 -1.80098 -3.54023 7.21693e-07
553 1 26.6941 5.30301 0.00651697 -3.54023 5.2142e-07
554 1 26.3406 7.07502 1.81402 -3.54022 3.54032e-07
555 1 28.821 3.88459 -3.60848 -3.54023 3.88508e-07
556 1 28.4673 5.65664 -1.80098 -3.54022 2.79417e-07
557 1 28.1138 7.42861 0.00651721 -3.54022 2.72345e-07
558 1 27.7604 9.20053 1.81402 -3.54021 5.68937e-07
559 1 30.2404 6.01046 -3.60848 -3.54022 1.89859e-07
560 1 29.8868 7.78244 -1.80098 -3.54021 3.35025e-07
561 1 29.5333 9.55443 0.00651744 -3.54021 7.16193e-07
562 1 29.1798 11.3265 1.81402 -3.54021 1.13258e-06
563 1 31.6597 8.13647 -3.60848 -3.54021 4.53272e-07
564 1 31.3061 9.90855 -1.80098 -3.54021 8.01927e-07
565 1 30.9524 11.6807 0.00651762 -3.54021 9.53666e-07
566 1 30.5985 13.453 1.81402 -3.54021 9.03133e-07
567 1 33.0786 10.2628 -3.60848 -3.54022 7.66857e-07
568 1 32.7247 12.0351 -1.80098 -3.54021 6.34862e-07
569 1 32.3707 13.8075 0.00651777 -3.54021 5.06238e-07
570 1 32.0165 15.58 1.81402 -3.54021 4.88517e-07
571 1 34.4969 12.3897 -3.60848 -3.54021 2.56673e-07
572 1 34.1428 14.1621 -1.80098 -3.54021 2.69246e-07
573 1 33.7884 15.9347 0.00651789 -3.54022 3.91705e-07
574 1 33.4339 17.7073 1.81402 -3.54022 3.81709e-07
575 1 35.9148 14.5167 -3.60848 -3.54021 3.09043e-07
576 1 35.5604 16.2893 -1.80098 -3.54023 4.99151e-07