ITEM: TIMESTEP
0
ITEM: NUMBER OF ATOMS
2504
ITEM: BOX BOUNDS xy xz yz mm pp pp
-5.5498871899999997e+01 5.5498871899999997e+01 0.0000000000000000e+00
-1.8432957300000002e+01 1.8432957300000002e+01 0.0000000000000000e+00
-3.6150000000000002e+00 3.6150000000000002e+00 0.0000000000000000e+00
ITEM: ATOMS id type x y z c_eng c_csym
1 1 0.633208 16.755 -3.60375 -3.44088 3.58088
2 1 0.289889 -18.2953 -1.79625 -3.2831 9.07631
3 1 0.993638 13.0406 -3.60375 -3.49678 0.328925
4 1 0.860442 14.7952 -1.79625 -3.50388 0.585631
5 1 0.633208 16.755 0.0112512 -3.44088 3.58088
6 1 0.289889 -18.2953 1.81875 -3.2831 9.07631
7 1 2.58427 15.1752 -3.60375 -3.54105 0.119628
8 1 2.28725 17.0115 -1.79625 -3.5207 0.0811372
9 1 3.97633 17.3746 -3.60375 -3.54494 0.0296286
10 1 0.535667 7.42641 -3.60375 -3.51481 1.28852
11 1 0.189893 9.18976 -1.79625 -3.3452 3.5901
12 1 1.8264 9.61585 -3.60375 -3.49419 0.280362
13 1 1.34136 11.3783 -1.79625 -3.49318 0.354203
14 1 0.993638 13.0406 0.0112514 -3.49678 0.328925
15 1 0.860442 14.7952 1.81875 -3.50388 0.585631
16 1 3.20885 11.7009 -3.60375 -3.52373 0.0387339
17 1 2.90288 13.4101 -1.79625 -3.51423 0.0690718
18 1 2.58427 15.1752 0.0112515 -3.54105 0.119628
19 1 2.28725 17.0115 1.81875 -3.5207 0.0811372
20 1 4.69519 13.787 -3.60375 -3.53321 0.0133315
21 1 4.3443 15.5591 -1.79625 -3.53802 0.0135731
22 1 3.97633 17.3746 0.0112516 -3.54494 0.0296286
23 1 6.09899 15.9352 -3.60375 -3.54098 0.00266736
24 1 5.73255 17.7198 -1.79625 -3.54489 0.0134336
25 1 7.51936 18.0604 -3.60375 -3.54142 0.00286773
26 1 1.08806 3.78522 -3.60375 -3.52493 0.163547
27 1 0.840954 5.55925 -1.79625 -3.53765 0.129474
28 1 0.535667 7.42641 0.0112512 -3.51481 1.28847
29 1 0.189893 9.18976 1.81875 -3.34577 3.5901
30 1 2.5813 5.94415 -3.60375 -3.54177 0.041686
31 1 2.24695 7.75024 -1.79625 -3.52407 0.0403795
32 1 1.8264 9.61585 0.0112515 -3.49419 0.280362
33 1 1.34136 11.3783 1.81875 -3.49317 0.354203
34 1 3.95438 8.1383 -3.60375 -3.5441 0.0163545
35 1 3.5649 9.93891 -1.79625 -3.54289 0.0476597
36 1 3.20885 11.7009 0.0112516 -3.52373 0.0387339
37 1 2.90288 13.4101 1.81875 -3.51423 0.0690718
38 1 5.35718 10.27 -3.60375 -3.54214 0.00620503
39 1 5.02856 12.027 -1.79625 -3.53456 0.00694166
40 1 4.69519 13.787 0.0112522 -3.53321 0.0133315
41 1 4.3443 15.5591 1.81875 -3.53802 0.0135731
42 1 6.81331 12.3795 -3.60375 -3.53815 0.00285415
43 1 6.46416 14.1528 -1.79625 -3.53814 0.00181095
44 1 6.09899 15.9352 0.0112522 -3.54098 0.00266736
45 1 5.73255 17.7198 1.81875 -3.54489 0.0134336
46 1 8.23028 14.5145 -3.60375 -3.54068 0.000419589
47 1 7.87017 16.2903 -1.79625 -3.54151 0.002467
48 1 7.51936 18.0604 0.0112523 -3.54142 0.00286773
49 1 9.65297 16.6386 -3.60375 -3.54079 0.000784018
50 1 9.31051 18.4034 -1.79625 -3.53975 0.000362272
51 1 0.548961 -1.80455 -3.60375 -3.52093 1.09408
52 1 0.210374 -0.0550503 -1.79625 -3.3677 2.93616
53 1 1.90849 0.340302 -3.60375 -3.51288 0.179022
54 1 1.46691 2.09276 -1.79625 -3.50817 0.187336
55 1 1.08806 3.78522 0.0112514 -3.52493 0.163499
56 1 0.840954 5.55925 1.81875 -3.53713 0.129474
57 1 3.28581 2.45365 -3.60375 -3.52959 0.0166751
58 1 2.93646 4.18429 -1.79625 -3.52833 0.0214357
59 1 2.5813 5.94415 0.0112515 -3.54177 0.041686
60 1 2.24695 7.75024 1.81875 -3.52415 0.0403795
61 1 4.71563 4.57061 -3.60375 -3.53557 0.00514675
62 1 4.34373 6.33924 -1.79625 -3.53794 0.0058361
63 1 3.95438 8.1383 0.0112516 -3.5441 0.0163545
64 1 3.5649 9.93891 1.81875 -3.54289 0.0476597
65 1 6.0988 6.72407 -3.60375 -3.54083 0.00229742
66 1 5.71658 8.50097 -1.79625 -3.54375 0.00964244
67 1 5.35718 10.27 0.0112522 -3.54214 0.00620503
68 1 5.02856 12.027 1.81875 -3.53456 0.00694166
69 1 7.50315 8.85463 -3.60375 -3.54082 0.00191023
70 1 7.15444 10.6151 -1.79625 -3.53907 0.000924739
71 1 6.81331 12.3795 0.0112523 -3.53815 0.00285415
72 1 6.46416 14.1528 1.81875 -3.53814 0.00181095
73 1 8.94004 10.9711 -3.60375 -3.5391 0.000562109
74 1 8.58796 12.7395 -1.79625 -3.53963 0.000517943
75 1 8.23028 14.5145 0.0112523 -3.54068 0.000419589
76 1 7.87017 16.2903 1.81875 -3.54151 0.002467
77 1 10.362 13.099 -3.60375 -3.54044 9.41752e-05
78 1 10.005 14.8698 -1.79625 -3.54104 0.00061419
79 1 9.65297 16.6386 0.0112524 -3.54079 0.000784018
80 1 9.31051 18.4034 1.81875 -3.53975 0.000362272
81 1 11.7861 15.2222 -3.60375 -3.54058 0.000241007
82 1 11.4385 16.9877 -1.79625 -3.5401 0.00011823
83 1 13.2215 17.3397 -3.60375 -3.53989 0.000100367
84 1 1.12344 -5.40271 -3.60375 -3.5181 0.200818
85 1 0.857535 -3.65643 -1.79625 -3.54267 0.1357
86 1 0.548961 -1.80455 0.0112512 -3.52093 1.09404
87 1 0.210374 -0.0550503 1.81875 -3.36796 2.93616
88 1 2.62137 -3.25593 -3.60375 -3.54391 0.0354689
89 1 2.28854 -1.48186 -1.79625 -3.53256 0.0266585
90 1 1.90849 0.340302 0.0112515 -3.51288 0.178998
91 1 1.46691 2.09276 1.81875 -3.50863 0.187336
92 1 4.02947 -1.09271 -3.60375 -3.54448 0.00542069
93 1 3.65328 0.687511 -1.79625 -3.54168 0.0101378
94 1 3.28581 2.45365 0.0112516 -3.52959 0.0166751
95 1 2.93646 4.18429 1.81875 -3.52841 0.0214357
96 1 5.42866 1.04574 -3.60375 -3.54194 0.00106646
97 1 5.07492 2.80713 -1.79625 -3.53749 0.00216223
98 1 4.71563 4.57061 0.0112522 -3.53557 0.00514675
99 1 4.34373 6.33924 1.81875 -3.53794 0.0058361
100 1 6.84707 3.17378 -3.60375 -3.53923 0.000970871
101 1 6.4794 4.94588 -1.79625 -3.53883 0.0008668
102 1 6.0988 6.72407 0.0112522 -3.54083 0.00229742
103 1 5.71658 8.50097 1.81875 -3.54375 0.00964244
104 1 8.24216 5.31504 -3.60375 -3.54065 0.000573875
105 1 7.86844 7.08813 -1.79625 -3.54129 0.00227924
106 1 7.50315 8.85463 0.0112523 -3.54082 0.00191023
107 1 7.15444 10.6151 1.81875 -3.53907 0.000924739
108 1 9.64804 7.44384 -3.60375 -3.54055 0.000687743
109 1 9.29125 9.20769 -1.79625 -3.53957 0.000172116
110 1 8.94004 10.9711 0.0112524 -3.5391 0.000562109
111 1 8.58796 12.7395 1.81875 -3.53963 0.000517943
112 1 11.0737 9.56304 -3.60375 -3.53959 8.40497e-05
113 1 10.7187 11.3296 -1.79625 -3.53974 9.78675e-05
114 1 10.362 13.099 0.0112525 -3.54044 9.41752e-05
115 1 10.005 14.8698 1.81875 -3.54104 0.00061419
116 1 12.4957 11.6868 -3.60375 -3.5402 2.02053e-05
117 1 12.1395 13.455 -1.79625 -3.54055 0.000153396
118 1 11.7861 15.2222 0.011253 -3.54058 0.000241007
119 1 11.4385 16.9877 1.81875 -3.5401 0.00011823
120 1 13.9195 13.8087 -3.60375 -3.54036 7.54874e-05
121 1 13.5687 15.5745 -1.79625 -3.54017 4.36194e-05
122 1 13.2215 17.3397 0.0112532 -3.53989 0.000100367
123 1 15.3496 15.9278 -3.60375 -3.54002 3.5666e-05
124 1 15.001 17.6943 -1.79625 -3.53993 0.000100023
125 1 16.7777 18.0501 -3.60375 -3.54003 6.37999e-05
126 1 0.686246 -10.912 -3.60375 -3.45764 3.10618
127 1 0.383826 -9.13304 -1.79625 -3.30055 8.45472
128 1 2.02318 -8.78965 -3.60375 -3.48628 0.415258
129 1 1.55516 -7.03505 -1.79625 -3.4741 0.407615
130 1 1.12344 -5.40271 0.0112514 -3.5181 0.20077
131 1 0.857535 -3.65643 1.81875 -3.54219 0.1357
132 1 3.36384 -6.69986 -3.60375 -3.52581 0.0608268
133 1 2.99642 -4.9798 -1.79625 -3.52296 0.0317386
134 1 2.62137 -3.25593 0.0112515 -3.54391 0.0354689
135 1 2.28854 -1.48186 1.81875 -3.53268 0.0266585
136 1 4.78208 -4.60977 -3.60375 -3.53408 0.0119274
137 1 4.40965 -2.85894 -1.79625 -3.53706 0.00421321
138 1 4.02947 -1.09271 0.0112521 -3.54448 0.00542069
139 1 3.65328 0.687511 1.81875 -3.54171 0.0101378
140 1 6.17576 -2.48352 -3.60375 -3.53882 0.0021607
141 1 5.79765 -0.717672 -1.79625 -3.54167 0.00139779
142 1 5.42866 1.04574 0.0112522 -3.54194 0.00106646
143 1 5.07492 2.80713 1.81875 -3.53749 0.00216223
144 1 7.57219 -0.355755 -3.60375 -3.53999 0.000726468
145 1 7.20866 1.40787 -1.79625 -3.5396 0.000301421
146 1 6.84707 3.17378 0.0112523 -3.53923 0.000970871
147 1 6.4794 4.94588 1.81875 -3.53883 0.0008668
148 1 8.98089 1.77034 -3.60375 -3.53933 0.000361704
149 1 8.61415 3.54114 -1.79625 -3.53978 0.000216113
150 1 8.24216 5.31504 0.0112523 -3.54065 0.000573875
151 1 7.86844 7.08813 1.81875 -3.54129 0.00227924
152 1 10.3812 3.90354 -3.60375 -3.54027 0.000244671
153 1 10.0127 5.67555 -1.79625 -3.54079 0.000690785
154 1 9.64804 7.44384 0.0112524 -3.54055 0.000687743
155 1 9.29125 9.20769 1.81875 -3.53957 0.000172116
156 1 11.7884 6.03059 -3.60375 -3.54038 0.000309195
157 1 11.4293 7.79765 -1.79625 -3.53998 0.00010447
158 1 11.0737 9.56304 0.011253 -3.53959 8.40497e-05
159 1 10.7187 11.3296 1.81875 -3.53974 9.78675e-05
160 1 13.2083 8.15142 -3.60375 -3.53989 3.72682e-05
161 1 12.8522 9.91885 -1.79625 -3.5399 2.38824e-05
162 1 12.4957 11.6868 0.0112531 -3.5402 2.02053e-05
163 1 12.1395 13.455 1.81875 -3.54055 0.000153396
164 1 14.6292 10.2735 -3.60375 -3.54014 2.0208e-05
165 1 14.2735 12.0416 -1.79625 -3.54032 5.04473e-05
166 1 13.9195 13.8087 0.0112532 -3.54036 7.54874e-05
167 1 13.5687 15.5745 1.81875 -3.54017 4.36194e-05
168 1 16.052 12.3948 -3.60375 -3.54026 3.34781e-05
169 1 15.6997 14.1617 -1.79625 -3.54017 2.11847e-05
170 1 15.3496 15.9278 0.0112534 -3.54002 3.5666e-05
171 1 15.001 17.6943 1.81875 -3.53993 0.000100023
172 1 17.4787 14.5149 -3.60375 -3.54009 1.896e-05
173 1 17.1281 16.2822 -1.79625 -3.54002 4.36688e-05
174 1 16.7777 18.0501 0.0112536 -3.54003 6.37999e-05
175 1 18.9043 16.6372 -3.60375 -3.54008 3.50006e-05
176 1 18.5525 18.4064 -1.79625 -3.54011 3.44702e-05
177 1 1.01313 -14.5707 -3.60375 -3.48354 0.466155
178 1 0.896224 -12.8276 -1.79625 -3.51828 0.499578
179 1 0.686246 -10.912 0.0112512 -3.45764 3.10618
180 1 0.383826 -9.13304 1.81875 -3.30007 8.45472
181 1 2.64726 -12.4716 -3.60375 -3.54307 0.124172
182 1 2.37466 -10.6644 -1.79625 -3.52939 0.0790608
183 1 2.02318 -8.78965 0.0112515 -3.48629 0.415235
184 1 1.55516 -7.03505 1.81875 -3.47464 0.407615
185 1 4.08139 -10.3036 -3.60375 -3.54576 0.0186751
186 1 3.72643 -8.48977 -1.79625 -3.54188 0.0197238
187 1 3.36384 -6.69986 0.0112516 -3.52581 0.0608268
188 1 2.99642 -4.9798 1.81875 -3.52303 0.0317386
189 1 5.47846 -8.15906 -3.60375 -3.54402 0.00308493
190 1 5.13683 -6.37838 -1.79625 -3.5384 0.00416047
191 1 4.78208 -4.60977 0.0112522 -3.53408 0.0119274
192 1 4.40965 -2.85894 1.81875 -3.53706 0.00421321
193 1 6.89912 -6.03585 -3.60375 -3.54013 0.000612228
194 1 6.5451 -4.2572 -1.79625 -3.53852 0.00208205
195 1 6.17576 -2.48352 0.0112522 -3.53882 0.0021607
196 1 5.79765 -0.717672 1.81875 -3.54167 0.00139779
197 1 8.30322 -3.90382 -3.60375 -3.54029 0.000214965
198 1 7.9392 -2.12591 -1.79625 -3.54016 0.000854667
199 1 7.57219 -0.355755 0.0112523 -3.53999 0.000726468
200 1 7.20866 1.40787 1.81875 -3.5396 0.000301421
201 1 9.70463 -1.7731 -3.60375 -3.54034 0.000179033
202 1 9.34372 0.000200898 -1.79625 -3.53962 0.000298327
203 1 8.98089 1.77034 0.0112524 -3.53933 0.000361704
204 1 8.61415 3.54114 1.81875 -3.53978 0.000216113
205 1 11.1113 0.355373 -3.60375 -3.53981 0.000110823
206 1 10.7483 2.12987 -1.79625 -3.53978 0.000154328
207 1 10.3812 3.90354 0.0112529 -3.54027 0.000244671
208 1 10.0127 5.67555 1.81875 -3.54079 0.000690785
209 1 12.5152 2.48611 -3.60375 -3.5402 0.000118198
210 1 12.1513 4.26002 -1.79625 -3.54039 0.000285461
211 1 11.7884 6.03059 0.011253 -3.54038 0.000309195
212 1 11.4293 7.79765 1.81875 -3.53998 0.00010447
213 1 13.9239 4.61294 -3.60375 -3.5403 0.000151125
214 1 13.5652 6.38331 -1.79625 -3.5401 9.10968e-05
215 1 13.2083 8.15142 0.0112532 -3.53989 3.72682e-05
216 1 12.8522 9.91885 1.81875 -3.5399 2.38824e-05
217 1 15.3411 6.73538 -3.60375 -3.54006 3.1743e-05
218 1 14.9851 8.50484 -1.79625 -3.54002 2.2217e-05
219 1 14.6292 10.2735 0.0112533 -3.54014 2.0208e-05
220 1 14.2735 12.0416 1.81875 -3.54032 5.04473e-05
221 1 16.7609 8.85753 -3.60375 -3.54015 1.85871e-05
222 1 16.406 10.6268 -1.79625 -3.54023 2.8195e-05
223 1 16.052 12.3948 0.0112534 -3.54026 3.34781e-05
224 1 15.6997 14.1617 1.81875 -3.54017 2.11847e-05
225 1 18.1828 10.9791 -3.60375 -3.54023 1.87281e-05
226 1 17.8301 12.7474 -1.79625 -3.54018 1.51273e-05
227 1 17.4787 14.5149 0.0112536 -3.54009 1.896e-05
228 1 17.1281 16.2822 1.81875 -3.54002 4.36688e-05
229 1 19.6072 13.1001 -3.60375 -3.54014 1.20634e-05
230 1 19.2557 14.8686 -1.79625 -3.54009 2.32966e-05
231 1 18.9043 16.6372 0.0112538 -3.54008 3.50006e-05
232 1 18.5525 18.4064 1.81875 -3.54011 3.44702e-05
233 1 21.0311 15.2228 -3.60375 -3.54012 2.05339e-05
234 1 20.6789 16.9925 -1.79625 -3.54013 2.3058e-05
235 1 22.4523 17.3479 -3.60375 -3.54016 1.43745e-05
236 1 1.89634 -17.9424 -3.60375 -3.45508 0.643357
237 1 1.38262 -16.1749 -1.79625 -3.43774 0.697772
238 1 1.01313 -14.5707 0.0112514 -3.48354 0.466155
239 1 0.896224 -12.8276 1.81875 -3.51828 0.499578
240 1 3.26478 -15.8908 -3.60375 -3.51761 0.0840186
241 1 2.95978 -14.1988 -1.79625 -3.50886 0.0735648
242 1 2.64726 -12.4716 0.0112515 -3.54307 0.124172
243 1 2.37466 -10.6644 1.81875 -3.52943 0.0790608
244 1 4.7684 -13.8457 -3.60375 -3.53113 0.0193827
245 1 4.43237 -12.0933 -1.79625 -3.5366 0.015029
246 1 4.08139 -10.3036 0.0112521 -3.54576 0.0186751
247 1 3.72643 -8.48977 1.81875 -3.5419 0.0197238
248 1 6.19265 -11.7228 -3.60375 -3.539 0.00135732
249 1 5.83164 -9.94339 -1.79625 -3.54328 0.00247295
250 1 5.47846 -8.15906 0.0112522 -3.54402 0.00308493
251 1 5.13683 -6.37838 1.81875 -3.5384 0.00416047
252 1 7.59723 -9.58944 -3.60375 -3.54082 0.00027231
253 1 7.24665 -7.81402 -1.79625 -3.54085 0.0003237
254 1 6.89912 -6.03585 0.0112523 -3.54013 0.000612228
255 1 6.5451 -4.2572 1.81875 -3.53852 0.00208205
256 1 9.01375 -7.46213 -3.60375 -3.53991 0.000118057
257 1 8.66083 -5.68416 -1.79625 -3.54018 0.000203016
258 1 8.30322 -3.90382 0.0112523 -3.54029 0.000214965
259 1 7.9392 -2.12591 1.81875 -3.54016 0.000854667
260 1 10.423 -5.32972 -3.60375 -3.54027 3.23163e-05
261 1 10.0647 -3.55055 -1.79625 -3.54058 5.92427e-05
262 1 9.70463 -1.7731 0.0112524 -3.54034 0.000179033
263 1 9.34372 0.000200898 1.81875 -3.53962 0.000298327
264 1 11.8292 -3.19731 -3.60375 -3.54037 1.62817e-05
265 1 11.471 -1.42028 -1.79625 -3.54016 2.80252e-05
266 1 11.1113 0.355373 0.011253 -3.53981 0.000110823
267 1 10.7483 2.12987 1.81875 -3.53978 0.000154328
268 1 13.2372 -1.06659 -3.60375 -3.54011 1.10688e-05
269 1 12.8774 0.710179 -1.79625 -3.54007 3.60693e-05
270 1 12.5152 2.48611 0.0112531 -3.5402 0.000118198
271 1 12.1513 4.26002 1.81875 -3.54039 0.000285461
272 1 14.6444 1.06409 -3.60375 -3.54026 4.00021e-05
273 1 14.284 2.83966 -1.79625 -3.54034 0.000110797
274 1 13.9239 4.61294 0.0112532 -3.5403 0.000151125
275 1 13.5652 6.38331 1.81875 -3.5401 9.10968e-05
276 1 16.0549 3.1917 -3.60375 -3.54031 6.52678e-05
277 1 15.6975 4.96452 -1.79625 -3.5402 5.36187e-05
278 1 15.3411 6.73538 0.0112534 -3.54006 3.1743e-05
279 1 14.9851 8.50484 1.81875 -3.54002 2.2217e-05
280 1 17.4713 5.31587 -3.60375 -3.54018 1.87942e-05
281 1 17.116 7.08724 -1.79625 -3.54013 1.5405e-05
282 1 16.7609 8.85753 0.0112536 -3.54015 1.85871e-05
283 1 16.406 10.6268 1.81875 -3.54023 2.8195e-05
284 1 18.8906 7.43893 -3.60375 -3.5402 1.04125e-05
285 1 18.5365 9.20956 -1.79625 -3.54022 1.55581e-05
286 1 18.1828 10.9791 0.0112537 -3.54023 1.87281e-05
287 1 17.8301 12.7474 1.81875 -3.54018 1.51273e-05
288 1 20.3119 9.56132 -3.60375 -3.54023 8.80562e-06
289 1 19.9592 11.3311 -1.79625 -3.5402 9.03514e-06
290 1 19.6072 13.1001 0.0112544 -3.54014 1.20634e-05
291 1 19.2557 14.8686 1.81875 -3.54009 2.32966e-05
292 1 21.7349 11.6834 -3.60375 -3.54018 6.23242e-06
293 1 21.383 13.4532 -1.79625 -3.54014 1.27529e-05
294 1 21.0311 15.2228 0.0112546 -3.54012 2.05339e-05
295 1 20.6789 16.9925 1.81875 -3.54013 2.3058e-05
296 1 23.1576 13.8067 -3.60375 -3.54015 1.14626e-05
297 1 22.8052 15.5772 -1.79625 -3.54015 1.48368e-05
298 1 22.4523 17.3479 0.0112547 -3.54016 1.43745e-05
299 1 24.5783 15.9318 -3.60375 -3.54017 9.7998e-06
300 1 24.2248 17.7033 -1.79625 -3.54018 8.87456e-06
301 1 25.9968 18.0586 -3.60374 -3.54019 5.40019e-06
302 1 1.89634 -17.9424 0.0112515 -3.45508 0.643357
303 1 1.38262 -16.1749 1.81875 -3.43774 0.697772
304 1 3.6089 -17.6682 -1.79625 -3.54232 0.0647791
305 1 3.26478 -15.8908 0.0112516 -3.51761 0.0840186
306 1 2.95978 -14.1988 1.81875 -3.50886 0.0735648
307 1 5.39124 -17.3662 -3.60375 -3.54401 0.010354
308 1 5.08282 -15.6014 -1.79625 -3.53532 0.00838679
309 1 4.7684 -13.8457 0.0112522 -3.53113 0.0193827
310 1 4.43237 -12.0933 1.81875 -3.5366 0.015029
311 1 6.86842 -15.2737 -3.60375 -3.53856 0.00409308
312 1 6.54101 -13.5004 -1.79625 -3.53732 0.00492391
313 1 6.19265 -11.7228 0.0112522 -3.539 0.00135732
314 1 5.83164 -9.94339 1.81875 -3.54328 0.00247295
315 1 8.3023 -13.1492 -3.60375 -3.53996 0.000722721
316 1 7.95204 -11.3678 -1.79625 -3.54036 0.000200556
317 1 7.59723 -9.58944 0.0112523 -3.54082 0.00027231
318 1 7.24665 -7.81402 1.81875 -3.54085 0.0003237
319 1 9.71565 -11.0165 -3.60375 -3.54056 4.46772e-05
320 1 9.36491 -9.23862 -1.79625 -3.54004 1.48797e-05
321 1 9.01375 -7.46213 0.0112524 -3.53991 0.000118057
322 1 8.66083 -5.68416 1.81875 -3.54018 0.000203016
323 1 11.1313 -8.88645 -3.60375 -3.54002 3.72432e-05
324 1 10.7786 -7.10847 -1.79625 -3.53994 5.95808e-05
325 1 10.423 -5.32972 0.0112529 -3.54027 3.23163e-05
326 1 10.0647 -3.55055 1.81875 -3.54058 5.92427e-05
327 1 12.543 -6.7541 -3.60375 -3.54016 1.98314e-05
328 1 12.1868 -4.97548 -1.79625 -3.5403 1.23687e-05
329 1 11.8292 -3.19731 0.011253 -3.54037 1.62817e-05
330 1 11.471 -1.42028 1.81875 -3.54016 2.80252e-05
331 1 13.9521 -4.62141 -3.60375 -3.54026 7.41283e-06
332 1 13.5951 -2.84377 -1.79625 -3.5402 4.36642e-06
333 1 13.2372 -1.06659 0.0112532 -3.54011 1.10688e-05
334 1 12.8774 0.710179 1.81875 -3.54007 3.60693e-05
335 1 15.3617 -2.4898 -3.60375 -3.54018 4.75591e-06
336 1 15.0037 -0.71266 -1.79625 -3.54018 1.02093e-05
337 1 14.6444 1.06409 0.0112533 -3.54026 4.00021e-05
338 1 14.284 2.83966 1.81875 -3.54034 0.000110797
339 1 16.7713 -0.359018 -3.60375 -3.54026 1.95915e-05
340 1 16.4131 1.41699 -1.79625 -3.54031 4.52111e-05
341 1 16.0549 3.1917 0.0112534 -3.54031 6.52678e-05
342 1 15.6975 4.96452 1.81875 -3.5402 5.36187e-05
343 1 18.1835 1.76929 -3.60375 -3.5403 3.21982e-05
344 1 17.8271 3.54324 -1.79625 -3.54025 2.86591e-05
345 1 17.4713 5.31587 0.0112536 -3.54018 1.87942e-05
346 1 17.116 7.08724 1.81875 -3.54013 1.5405e-05
347 1 19.5998 3.89482 -3.60375 -3.54023 1.25638e-05
348 1 19.2451 5.66733 -1.79625 -3.5402 8.98301e-06
349 1 18.8906 7.43893 0.0112543 -3.5402 1.04125e-05
350 1 18.5365 9.20956 1.81875 -3.54022 1.55581e-05
351 1 21.0189 6.01896 -3.60375 -3.54022 5.9005e-06
352 1 20.6652 7.79057 -1.79625 -3.54023 7.1803e-06
353 1 20.3119 9.56132 0.0112545 -3.54023 8.80562e-06
354 1 19.9592 11.3311 1.81875 -3.5402 9.03514e-06
355 1 22.4397 8.14234 -3.60375 -3.54023 3.71876e-06
356 1 22.0871 9.91321 -1.79625 -3.54021 3.92308e-06
357 1 21.7349 11.6834 0.0112547 -3.54018 6.23242e-06
358 1 21.383 13.4532 1.81875 -3.54014 1.27529e-05
359 1 23.8618 10.2655 -3.60375 -3.5402 2.66925e-06
360 1 23.5097 12.0362 -1.79625 -3.54017 6.29242e-06
361 1 23.1576 13.8067 0.0112548 -3.54015 1.14626e-05
362 1 22.8052 15.5772 1.81875 -3.54015 1.48368e-05
363 1 25.2837 12.3895 -3.60374 -3.54018 6.0839e-06
364 1 24.9312 14.1606 -1.79624 -3.54017 8.83943e-06
365 1 24.5783 15.9318 0.011255 -3.54017 9.7998e-06
366 1 24.2248 17.7033 1.81875 -3.54018 8.87456e-06
367 1 26.704 14.5148 -3.60374 -3.54019 6.22849e-06
368 1 26.3507 16.2866 -1.79624 -3.54019 6.18809e-06
369 1 25.9968 18.0586 0.0112552 -3.54019 5.40019e-06
370 1 28.1226 16.6415 -3.60374 -3.5402 3.76639e-06
371 1 27.7684 18.4139 -1.79624 -3.5402 3.18664e-06
372 1 3.6089 -17.6682 1.81875 -3.54232 0.0647791
373 1 5.39124 -17.3662 0.0112522 -3.54401 0.010354
374 1 5.08282 -15.6014 1.81875 -3.53532 0.00838679
375 1 7.18823 -17.0412 -1.79625 -3.53996 0.00182253
376 1 6.86842 -15.2737 0.0112523 -3.53856 0.00409308
377 1 6.54101 -13.5004 1.81875 -3.53732 0.00492391
378 1 8.97611 -16.698 -3.60375 -3.53918 0.00129982
379 1 8.64269 -14.9277 -1.79625 -3.53946 0.00193377
380 1 8.3023 -13.1492 0.0112523 -3.53996 0.000722721
381 1 7.95204 -11.3678 1.81875 -3.54036 0.000200556
382 1 10.4125 -14.5735 -3.60375 -3.54007 0.000540665
383 1 10.0655 -12.796 -1.79625 -3.54061 0.000148552
384 1 9.71565 -11.0165 0.0112524 -3.54056 4.46772e-05
385 1 9.36491 -9.23862 1.81875 -3.54004 1.48797e-05
386 1 11.8323 -12.4414 -3.60375 -3.54051 6.91039e-05
387 1 11.4821 -10.6641 -1.79625 -3.54036 3.23092e-05
388 1 11.1313 -8.88645 0.011253 -3.54002 3.72432e-05
389 1 10.7786 -7.10847 1.81875 -3.53994 5.95808e-05
390 1 13.2494 -10.3097 -3.60375 -3.54023 4.32869e-05
391 1 12.8971 -8.5324 -1.79625 -3.54014 3.74814e-05
392 1 12.543 -6.7541 0.0112531 -3.54016 1.98314e-05
393 1 12.1868 -4.97548 1.81875 -3.5403 1.23687e-05
394 1 14.6633 -8.17706 -3.60375 -3.54023 2.43509e-05
395 1 14.3083 -6.39937 -1.79625 -3.54026 1.24628e-05
396 1 13.9521 -4.62141 0.0112532 -3.54026 7.41283e-06
397 1 13.5951 -2.84377 1.81875 -3.5402 4.36642e-06
398 1 16.0748 -6.04426 -3.60375 -3.54026 1.05957e-05
399 1 15.7186 -4.26706 -1.79625 -3.54023 6.28284e-06
400 1 15.3617 -2.4898 0.0112534 -3.54018 4.75591e-06
401 1 15.0037 -0.71266 1.81875 -3.54018 1.02093e-05
402 1 17.486 -3.91234 -3.60375 -3.54022 7.16716e-06
403 1 17.129 -2.13563 -1.79625 -3.54022 8.44921e-06
404 1 16.7713 -0.359018 0.0112536 -3.54026 1.95915e-05
405 1 16.4131 1.41699 1.81875 -3.54031 4.52111e-05
406 1 18.8975 -1.78152 -3.60375 -3.54026 1.35966e-05
407 1 18.5404 -0.00577841 -1.79625 -3.54029 2.37285e-05
408 1 18.1835 1.76929 0.0112537 -3.5403 3.21982e-05
409 1 17.8271 3.54324 1.81875 -3.54025 2.86591e-05
410 1 20.3109 0.34722 -3.60375 -3.54028 1.92672e-05
411 1 19.9551 2.12143 -1.79625 -3.54027 1.80554e-05
412 1 19.5998 3.89482 0.0112544 -3.54023 1.25638e-05
413 1 19.2451 5.66733 1.81875 -3.5402 8.98301e-06
414 1 21.7275 2.47369 -3.60375 -3.54025 9.99037e-06
415 1 21.373 4.24664 -1.79625 -3.54023 6.89758e-06
416 1 21.0189 6.01896 0.0112546 -3.54022 5.9005e-06
417 1 20.6652 7.79057 1.81875 -3.54023 7.1803e-06
418 1 23.1464 4.59873 -3.60375 -3.54024 4.50914e-06
419 1 22.7928 6.37082 -1.79625 -3.54024 3.85361e-06
420 1 22.4397 8.14234 0.0112547 -3.54023 3.71876e-06
421 1 22.0871 9.91321 1.81875 -3.54021 3.92308e-06
422 1 24.5669 6.72298 -3.60375 -3.54023 2.02282e-06
423 1 24.2142 8.49445 -1.79625 -3.54022 1.63309e-06
424 1 23.8618 10.2655 0.0112549 -3.5402 2.66925e-06
425 1 23.5097 12.0362 1.81875 -3.54017 6.29242e-06
426 1 25.9883 8.84701 -3.60374 -3.54021 1.2653e-06
427 1 25.636 10.6183 -1.79624 -3.54019 3.03506e-06
428 1 25.2837 12.3895 0.0112551 -3.54018 6.0839e-06
429 1 24.9312 14.1606 1.81876 -3.54017 8.83943e-06
430 1 27.4096 10.9716 -3.60374 -3.5402 3.37175e-06
431 1 27.0569 12.7432 -1.79624 -3.54019 5.19729e-06
432 1 26.704 14.5148 0.0112553 -3.54019 6.22849e-06
433 1 26.3507 16.2866 1.81876 -3.54019 6.18809e-06
434 1 28.8297 13.0972 -3.60374 -3.5402 4.00942e-06
435 1 28.4764 14.8693 -1.79624 -3.5402 4.11418e-06
436 1 28.1226 16.6415 0.0112554 -3.5402 3.76639e-06
437 1 27.7684 18.4139 1.81876 -3.5402 3.18664e-06
438 1 30.2483 15.2239 -3.60374 -3.5402 2.55551e-06
439 1 29.8943 16.9964 -1.79624 -3.5402 2.24027e-06
440 1 31.6658 17.3514 -3.60374 -3.54021 1.38018e-06
441 1 7.18823 -17.0412 1.81875 -3.53996 0.00182253
442 1 8.97611 -16.698 0.0112524 -3.53918 0.00129982
443 1 8.64269 -14.9277 1.81875 -3.53946 0.00193377
444 1 11.0961 -18.1133 -3.60375 -3.53954 0.000327298
445 1 10.7555 -16.346 -1.79625 -3.53951 0.00071618
446 1 10.4125 -14.5735 0.0112525 -3.54007 0.000540665
447 1 10.0655 -12.796 1.81875 -3.54061 0.000148552
448 1 12.5301 -15.9902 -3.60375 -3.53993 0.000262394
449 1 12.182 -14.2172 -1.79625 -3.54029 0.000136202
450 1 11.8323 -12.4414 0.011253 -3.54051 6.91039e-05
451 1 11.4821 -10.6641 1.81875 -3.54036 3.23092e-05
452 1 13.9522 -13.8603 -3.60375 -3.54029 4.83328e-05
453 1 13.6009 -12.0857 -1.79625 -3.54032 4.24374e-05
454 1 13.2494 -10.3097 0.0112532 -3.54023 4.32869e-05
455 1 12.8971 -8.5324 1.81875 -3.54014 3.74814e-05
456 1 15.3702 -11.7291 -3.60375 -3.54023 2.96938e-05
457 1 15.0172 -9.95378 -1.79625 -3.54021 3.27597e-05
458 1 14.6633 -8.17706 0.0112533 -3.54023 2.43509e-05
459 1 14.3083 -6.39937 1.81875 -3.54026 1.24628e-05
460 1 16.7854 -9.59709 -3.60375 -3.54023 1.84756e-05
461 1 16.4304 -7.82108 -1.79625 -3.54026 1.51554e-05
462 1 16.0748 -6.04426 0.0112534 -3.54026 1.05957e-05
463 1 15.7186 -4.26706 1.81875 -3.54023 6.28284e-06
464 1 18.1985 -7.46483 -3.60375 -3.54025 9.47925e-06
465 1 17.8424 -5.68881 -1.79625 -3.54024 8.60259e-06
466 1 17.486 -3.91234 0.0112536 -3.54022 7.16716e-06
467 1 17.129 -2.13563 1.81875 -3.54022 8.44921e-06
468 1 19.611 -5.3332 -3.60375 -3.54024 7.03145e-06
469 1 19.2544 -3.55745 -1.79625 -3.54024 8.64063e-06
470 1 18.8975 -1.78152 0.0112543 -3.54026 1.35966e-05
471 1 18.5404 -0.00577841 1.81875 -3.54029 2.37285e-05
472 1 21.0238 -3.20263 -3.60375 -3.54026 1.00105e-05
473 1 20.6673 -1.42757 -1.79625 -3.54028 1.517e-05
474 1 20.3109 0.34722 0.0112545 -3.54028 1.92672e-05
475 1 19.9551 2.12143 1.81875 -3.54027 1.80554e-05
476 1 22.4382 -1.07377 -3.60375 -3.54027 1.26998e-05
477 1 22.0825 0.700178 -1.79625 -3.54027 1.28015e-05
478 1 21.7275 2.47369 0.0112547 -3.54025 9.99037e-06
479 1 21.373 4.24664 1.81875 -3.54023 6.89758e-06
480 1 23.8549 1.05322 -3.60375 -3.54025 8.02034e-06
481 1 23.5004 2.82617 -1.79625 -3.54024 6.07464e-06
482 1 23.1464 4.59873 0.0112548 -3.54024 4.50914e-06
483 1 22.7928 6.37082 1.81875 -3.54024 3.85361e-06
484 1 25.2737 3.17889 -3.60374 -3.54024 3.82946e-06
485 1 24.92 4.95111 -1.79624 -3.54024 2.82505e-06
486 1 24.5669 6.72298 0.011255 -3.54023 2.02282e-06
487 1 24.2142 8.49445 1.81875 -3.54022 1.63309e-06
488 1 26.6938 5.3038 -3.60374 -3.54023 1.52036e-06
489 1 26.3409 7.07552 -1.79624 -3.54022 1.00155e-06
490 1 25.9883 8.84701 0.0112552 -3.54021 1.2653e-06
491 1 25.636 10.6183 1.81876 -3.54019 3.03506e-06
492 1 28.1147 7.42849 -3.60374 -3.54022 8.13933e-07
493 1 27.7621 9.20006 -1.79624 -3.54021 1.66254e-06
494 1 27.4096 10.9716 0.0112553 -3.5402 3.37175e-06
495 1 27.0569 12.7432 1.81876 -3.54019 5.19729e-06
496 1 29.5355 9.55356 -3.60374 -3.5402 2.06334e-06
497 1 29.1827 11.3253 -1.79624 -3.5402 3.25998e-06
498 1 28.8297 13.0972 0.0112555 -3.5402 4.00942e-06
499 1 28.4764 14.8693 1.81876 -3.5402 4.11418e-06
500 1 30.9554 11.6794 -3.60374 -3.54021 2.75968e-06
501 1 30.602 13.4516 -1.79624 -3.5402 2.78788e-06
502 1 30.2483 15.2239 0.0112557 -3.5402 2.55551e-06
503 1 29.8943 16.9964 1.81876 -3.5402 2.24027e-06
504 1 32.3741 13.8062 -3.60374 -3.5402 1.70704e-06
505 1 32.0201 15.5787 -1.79624 -3.54021 1.55268e-06
506 1 31.6658 17.3514 0.0112558 -3.54021 1.38018e-06
507 1 33.7918 15.9335 -3.60374 -3.54021 1.09177e-06
508 1 33.4372 17.7063 -1.79624 -3.54022 9.27632e-07
509 1 35.2086 18.0612 -3.60374 -3.54023 5.72546e-07
510 1 11.0961 -18.1133 0.011253 -3.53954 0.000327298
511 1 10.7555 -16.346 1.81875 -3.53951 0.00071618
512 1 12.8761 -17.7596 -1.79625 -3.53976 0.000258886
513 1 12.5301 -15.9902 0.0112531 -3.53993 0.000262394
514 1 12.182 -14.2172 1.81875 -3.54029 0.000136202
515 1 14.6525 -17.4035 -3.60375 -3.53998 0.000128404
516 1 14.3029 -15.633 -1.79625 -3.54015 8.62121e-05
517 1 13.9522 -13.8603 0.0112532 -3.54029 4.83328e-05
518 1 13.6009 -12.0857 1.81875 -3.54032 4.24374e-05
519 1 16.0752 -15.2755 -3.60375 -3.5402 3.36875e-05
520 1 15.7229 -13.5031 -1.79625 -3.54024 2.59523e-05
521 1 15.3702 -11.7291 0.0112534 -3.54023 2.96938e-05
522 1 15.0172 -9.95378 1.81875 -3.54021 3.27597e-05
523 1 17.4936 -13.1456 -3.60375 -3.54021 1.62599e-05
524 1 17.1398 -11.372 -1.79625 -3.54021 1.83488e-05
525 1 16.7854 -9.59709 0.0112536 -3.54023 1.84756e-05
526 1 16.4304 -7.82108 1.81875 -3.54026 1.51554e-05
527 1 18.9094 -11.0146 -3.60375 -3.54021 9.49436e-06
528 1 18.5542 -9.24016 -1.79625 -3.54023 9.52486e-06
529 1 18.1985 -7.46483 0.0112537 -3.54025 9.47925e-06
530 1 17.8424 -5.68881 1.81875 -3.54024 8.60259e-06
531 1 20.3235 -8.88328 -3.60375 -3.54023 4.88563e-06
532 1 19.9673 -7.10852 -1.79625 -3.54024 5.98154e-06
533 1 19.611 -5.3332 0.0112544 -3.54024 7.03145e-06
534 1 19.2544 -3.55745 1.81875 -3.54024 8.64063e-06
535 1 21.7369 -6.75233 -3.60375 -3.54023 4.16106e-06
536 1 21.3804 -4.97762 -1.79625 -3.54024 6.41718e-06
537 1 21.0238 -3.20263 0.0112546 -3.54026 1.00105e-05
538 1 20.6673 -1.42757 1.81875 -3.54028 1.517e-05
539 1 23.1506 -4.62225 -3.60375 -3.54025 6.31332e-06
540 1 22.7942 -2.84799 -1.79625 -3.54026 9.826e-06
541 1 22.4382 -1.07377 0.0112547 -3.54027 1.26998e-05
542 1 22.0825 0.700178 1.81875 -3.54027 1.28015e-05
543 1 24.5656 -2.49355 -3.60375 -3.54026 8.12187e-06
544 1 24.21 -0.720054 -1.79625 -3.54026 9.00773e-06
545 1 23.8549 1.05322 0.0112549 -3.54025 8.02034e-06
546 1 23.5004 2.82617 1.81875 -3.54024 6.07464e-06
547 1 25.9824 -0.36636 -3.60374 -3.54024 5.90395e-06
548 1 25.6278 1.40638 -1.79624 -3.54024 4.99203e-06
549 1 25.2737 3.17889 0.0112551 -3.54024 3.82946e-06
550 1 24.92 4.95111 1.81876 -3.54024 2.82505e-06
551 1 27.401 1.75968 -3.60374 -3.54024 2.98368e-06
552 1 27.0472 3.53184 -1.79624 -3.54024 2.23344e-06
553 1 26.6938 5.3038 0.0112553 -3.54023 1.52036e-06
554 1 26.3409 7.07552 1.81876 -3.54022 1.00155e-06
555 1 28.8208 3.88504 -3.60374 -3.54023 1.15652e-06
556 1 28.4676 5.65682 -1.79624 -3.54022 8.003e-07
557 1 28.1147 7.42849 0.0112554 -3.54022 8.13933e-07
558 1 27.7621 9.20006 1.81876 -3.54021 1.66254e-06
559 1 30.2412 6.01019 -3.60374 -3.54022 5.71804e-07
560 1 29.8883 7.78186 -1.79624 -3.54021 1.0213e-06
561 1 29.5355 9.55356 0.0112556 -3.5402 2.06334e-06
562 1 29.1827 11.3253 1.81876 -3.5402 3.25998e-06
563 1 31.6616 8.1356 -3.60374 -3.54021 1.31425e-06
564 1 31.3086 9.90744 -1.79624 -3.54021 2.22777e-06
565 1 30.9554 11.6794 0.0112557 -3.54021 2.75968e-06
566 1 30.602 13.4516 1.81876 -3.5402 2.78788e-06
567 1 33.0813 10.2616 -3.60374 -3.54021 2.07058e-06
568 1 32.7278 12.0338 -1.79624 -3.54021 1.95519e-06
569 1 32.3741 13.8062 0.0112558 -3.5402 1.70704e-06
570 1 32.0201 15.5787 1.81876 -3.54021 1.55268e-06
571 1 34.5 12.3884 -3.60374 -3.5402 1.03287e-06
572 1 34.146 14.1609 -1.79624 -3.54021 9.90667e-07
573 1 33.7918 15.9335 0.0112559 -3.54021 1.09177e-06
574 1 33.4372 17.7063 1.81876 -3.54022 9.27632e-07
575 1 35.9178 14.5156 -3.60374 -3.54021 8.53792e-07
576 1 35.5634 16.2884 -1.79624 -3.54023 1.03924e-06
577 1 35.2086 18.0612 0.011256 -3.54023 5.72546e-07
578 1 37.335 16.6432 -3.60374 -3.54024 1.03317e-06
579 1 36.98 18.4162 -1.79624 -3.54023 1.04608e-07