ITEM: TIMESTEP
0
ITEM: NUMBER OF ATOMS
2504
ITEM: BOX BOUNDS xy xz yz mm pp pp
-5.5498871899999997e+01 5.5498871899999997e+01 0.0000000000000000e+00
-1.8432957300000002e+01 1.8432957300000002e+01 0.0000000000000000e+00
-3.6150000000000002e+00 3.6150000000000002e+00 0.0000000000000000e+00
ITEM: ATOMS id type x y z c_eng c_csym
1 1 0.627123 16.8044 -3.59249 -3.43567 3.43622
2 1 0.296012 -18.2378 -1.78499 -3.27645 8.92924
3 1 0.959141 13.0765 -3.59249 -3.50738 0.282793
4 1 0.822658 14.8406 -1.78499 -3.504 0.579156
5 1 0.627123 16.8044 0.0225057 -3.43567 3.43622
6 1 0.296012 -18.2378 1.83001 -3.27645 8.92924
7 1 2.55292 15.1934 -3.59249 -3.53903 0.117177
8 1 2.27428 17.0412 -1.78499 -3.51638 0.0928401
9 1 3.95615 17.3896 -3.59249 -3.54265 0.0321713
10 1 0.432041 7.36363 -3.59249 -3.51787 0.142363
11 1 0.0960187 9.08295 -1.78499 -3.46281 0.595239
12 1 1.75233 9.57 -3.59249 -3.52626 0.0886949
13 1 1.28363 11.3464 -1.78499 -3.52496 0.246846
14 1 0.959141 13.0765 0.0225057 -3.50738 0.282793
15 1 0.822658 14.8406 1.83001 -3.504 0.579156
16 1 3.1417 11.6819 -3.59249 -3.53124 0.0263336
17 1 2.84466 13.4069 -1.78499 -3.52093 0.0565596
18 1 2.55292 15.1934 0.0225057 -3.53903 0.117177
19 1 2.27428 17.0412 1.83001 -3.51638 0.0928401
20 1 4.64345 13.7771 -3.59249 -3.53403 0.0131597
21 1 4.30918 15.5579 -1.78499 -3.53738 0.021442
22 1 3.95615 17.3896 0.0225057 -3.54265 0.0321713
23 1 6.06398 15.9286 -3.59249 -3.54126 0.00476426
24 1 5.70732 17.7216 -1.78499 -3.54512 0.0187445
25 1 7.49691 18.0529 -3.59249 -3.54204 0.00563355
26 1 1.14799 3.78229 -3.59249 -3.54692 0.0261804
27 1 0.783681 5.58513 -1.78499 -3.5459 0.0187656
28 1 0.432041 7.36363 0.0225057 -3.51787 0.142174
29 1 0.0960187 9.08295 1.83001 -3.46357 0.595239
30 1 2.54698 5.94772 -3.59249 -3.54034 0.00461458
31 1 2.19368 7.73507 -1.78499 -3.52498 0.0392657
32 1 1.75233 9.57 0.0225057 -3.52626 0.0886949
33 1 1.28363 11.3464 1.83001 -3.52504 0.246846
34 1 3.91226 8.13348 -3.59249 -3.54115 0.0105369
35 1 3.50682 9.92568 -1.78499 -3.543 0.0460256
36 1 3.1417 11.6819 0.0225057 -3.53124 0.0263336
37 1 2.84466 13.4069 1.83001 -3.52093 0.0565596
38 1 5.30771 10.2677 -3.59249 -3.54072 0.00762431
39 1 4.97209 12.0195 -1.78499 -3.53416 0.00483141
40 1 4.64345 13.7771 0.0225067 -3.53403 0.0131597
41 1 4.30918 15.5579 1.83001 -3.53738 0.021442
42 1 6.76809 12.3758 -3.59249 -3.53744 0.00231804
43 1 6.42175 14.1446 -1.78499 -3.53781 0.00226291
44 1 6.06398 15.9286 0.0225067 -3.54126 0.00476426
45 1 5.70732 17.7216 1.83001 -3.54512 0.0187445
46 1 8.19586 14.508 -3.59249 -3.5404 0.000603457
47 1 7.83994 16.2819 -1.78499 -3.5417 0.00372756
48 1 7.49691 18.0529 0.0225067 -3.54204 0.00563355
49 1 9.63061 16.6283 -3.59249 -3.54078 0.00147442
50 1 9.29645 18.3894 -1.78499 -3.53987 0.00102111
51 1 0.458629 -1.88182 -3.59249 -3.51937 0.0510465
52 1 0.136981 -0.190186 -1.78499 -3.50315 0.11878
53 1 1.91651 0.235384 -3.59249 -3.53374 0.0119265
54 1 1.53473 1.99175 -1.78499 -3.53907 0.00897775
55 1 1.14799 3.78229 0.0225057 -3.54692 0.0259905
56 1 0.783681 5.58513 1.83001 -3.5447 0.0187656
57 1 3.29563 2.40398 -3.59249 -3.54054 0.00136487
58 1 2.91181 4.17171 -1.78499 -3.54264 0.00372788
59 1 2.54698 5.94772 0.0225057 -3.54035 0.00461458
60 1 2.19368 7.73507 1.83001 -3.52518 0.0392657
61 1 4.68432 4.56075 -3.59249 -3.53936 0.000631396
62 1 4.30803 6.33471 -1.78499 -3.53765 0.00395408
63 1 3.91226 8.13348 0.0225057 -3.54115 0.0105369
64 1 3.50682 9.92568 1.83001 -3.543 0.0460256
65 1 6.0636 6.72271 -3.59249 -3.54107 0.00256803
66 1 5.67538 8.50038 -1.78499 -3.543 0.010181
67 1 5.30771 10.2677 0.0225067 -3.54072 0.00762431
68 1 4.97209 12.0195 1.83001 -3.53416 0.00483141
69 1 7.46448 8.85781 -3.59249 -3.54086 0.00270959
70 1 7.1111 10.616 -1.78499 -3.53871 0.000733712
71 1 6.76809 12.3758 0.0225067 -3.53744 0.00231804
72 1 6.42175 14.1446 1.83001 -3.53781 0.00226291
73 1 8.90381 10.9734 -3.59249 -3.53896 0.000374841
74 1 8.55164 12.7372 -1.78499 -3.53923 0.00043511
75 1 8.19586 14.508 0.0225067 -3.5404 0.000603457
76 1 7.83994 16.2819 1.83001 -3.5417 0.00372756
77 1 10.3334 13.0974 -3.59249 -3.54027 0.000155687
78 1 9.97839 14.8637 -1.78499 -3.54088 0.000937932
79 1 9.63061 16.6283 0.0225067 -3.54078 0.00147442
80 1 9.29645 18.3894 1.83001 -3.53987 0.00102111
81 1 11.7678 15.2154 -3.59249 -3.54047 0.000452243
82 1 11.4253 16.9752 -1.78499 -3.53994 0.000311091
83 1 13.2172 17.3259 -3.59249 -3.53963 0.00022928
84 1 1.21875 -5.37709 -3.59249 -3.54546 0.0774205
85 1 0.816843 -3.62977 -1.78499 -3.54988 0.0585218
86 1 0.458629 -1.88182 0.0225057 -3.51937 0.0508566
87 1 0.136981 -0.190186 1.83001 -3.50265 0.11878
88 1 2.62713 -3.23596 -3.59249 -3.54067 0.00821494
89 1 2.27686 -1.51265 -1.78499 -3.53403 0.0102267
90 1 1.91651 0.235384 0.0225057 -3.53374 0.0118315
91 1 1.53473 1.99175 1.83001 -3.53856 0.00897775
92 1 4.06244 -1.11206 -3.59249 -3.53855 0.00419469
93 1 3.68359 0.63936 -1.78499 -3.53944 0.00139016
94 1 3.29563 2.40398 0.0225057 -3.54054 0.00136487
95 1 2.91181 4.17171 1.83001 -3.54284 0.00372788
96 1 5.45065 1.0356 -3.59249 -3.54063 0.000645315
97 1 5.0648 2.79634 -1.78499 -3.54059 0.000300587
98 1 4.68432 4.56075 0.0225067 -3.53936 0.000631396
99 1 4.30803 6.33471 1.83001 -3.53765 0.00395408
100 1 6.83562 3.18081 -3.59249 -3.53969 0.000338475
101 1 6.45224 4.94735 -1.78499 -3.53926 0.000445748
102 1 6.0636 6.72271 0.0225067 -3.54107 0.00256803
103 1 5.67538 8.50038 1.83001 -3.543 0.010181
104 1 8.21963 5.32563 -3.59249 -3.54035 0.000969517
105 1 7.83647 7.09396 -1.78499 -3.54128 0.00285263
106 1 7.46448 8.85781 0.0225067 -3.54086 0.00270959
107 1 7.1111 10.616 1.83001 -3.53871 0.000733712
108 1 9.62074 7.45517 -3.59249 -3.54035 0.00113109
109 1 9.25794 9.2144 -1.78499 -3.53955 0.000312254
110 1 8.90381 10.9734 0.0225067 -3.53896 0.000374841
111 1 8.55164 12.7372 1.83001 -3.53923 0.00043511
112 1 11.047 9.57195 -3.59249 -3.53944 8.5173e-05
113 1 10.69 11.3331 -1.78499 -3.5396 6.35503e-05
114 1 10.3334 13.0974 0.0225067 -3.54027 0.000155687
115 1 9.97839 14.8637 1.83001 -3.54088 0.000937932
116 1 12.4743 11.691 -3.59249 -3.54005 6.59438e-05
117 1 12.1186 13.4537 -1.78499 -3.54044 0.000276113
118 1 11.7678 15.2154 0.0225077 -3.54047 0.000452243
119 1 11.4253 16.9752 1.83001 -3.53994 0.000311091
120 1 13.9062 13.8069 -3.59249 -3.54024 0.000157711
121 1 13.5588 15.5667 -1.78499 -3.54002 0.000112717
122 1 13.2172 17.3259 0.0225077 -3.53963 0.00022928
123 1 15.3473 15.9194 -3.59249 -3.53982 9.61042e-05
124 1 15.0038 17.6803 -1.78499 -3.53965 0.00028166
125 1 16.7854 18.037 -3.59249 -3.53979 0.000232001
126 1 0.733199 -10.8803 -3.59249 -3.46722 2.57991
127 1 0.483886 -9.12969 -1.78499 -3.29887 7.98798
128 1 2.14588 -8.80803 -3.59249 -3.49907 0.261093
129 1 1.71122 -7.0474 -1.78499 -3.49951 0.247134
130 1 1.21875 -5.37709 0.0225057 -3.54547 0.0772306
131 1 0.816843 -3.62977 1.83001 -3.54884 0.0585218
132 1 3.45168 -6.68656 -3.59249 -3.53028 0.0622637
133 1 3.03174 -4.93999 -1.78499 -3.53217 0.0414697
134 1 2.62713 -3.23596 0.0225057 -3.54067 0.00821494
135 1 2.27686 -1.51265 1.83001 -3.53433 0.0102267
136 1 4.81722 -4.58353 -3.59249 -3.53574 0.0179626
137 1 4.43986 -2.84517 -1.78499 -3.53441 0.00900177
138 1 4.06244 -1.11206 0.0225067 -3.53855 0.00419469
139 1 3.68359 0.63936 1.83001 -3.53954 0.00139016
140 1 6.21753 -2.47599 -3.59249 -3.53685 0.00621944
141 1 5.83753 -0.720426 -1.78499 -3.53851 0.00293945
142 1 5.45065 1.0356 0.0225067 -3.54063 0.000645315
143 1 5.0648 2.79634 1.83001 -3.54059 0.000300587
144 1 7.60257 -0.346477 -3.59249 -3.53906 0.00210647
145 1 7.21954 1.41807 -1.78499 -3.53972 0.00102948
146 1 6.83562 3.18081 0.0225067 -3.53969 0.000338475
147 1 6.45224 4.94735 1.83001 -3.53926 0.000445748
148 1 8.98551 1.78836 -3.59249 -3.53937 0.000929702
149 1 8.60403 3.55698 -1.78499 -3.53951 0.000584334
150 1 8.21963 5.32563 0.0225067 -3.54035 0.000969517
151 1 7.83647 7.09396 1.83001 -3.54128 0.00285263
152 1 10.3718 3.92304 -3.59249 -3.53991 0.000819206
153 1 9.99373 5.69156 -1.78499 -3.54039 0.00122543
154 1 9.62074 7.45517 0.0225067 -3.54035 0.00113109
155 1 9.25794 9.2144 1.83001 -3.53955 0.000312254
156 1 11.7723 6.0486 -3.59249 -3.54008 0.000720802
157 1 11.407 7.81166 -1.78499 -3.53974 0.000324936
158 1 11.047 9.57195 0.0225076 -3.53944 8.5173e-05
159 1 10.69 11.3331 1.83001 -3.5396 6.35503e-05
160 1 13.1908 8.16574 -3.59249 -3.53969 0.000159334
161 1 12.8319 9.92845 -1.78499 -3.53971 6.62562e-05
162 1 12.4743 11.691 0.0225077 -3.54005 6.59438e-05
163 1 12.1186 13.4537 1.83001 -3.54044 0.000276113
164 1 14.6148 10.2825 -3.59249 -3.53998 9.48879e-05
165 1 14.2589 12.0455 -1.78499 -3.54018 0.000126543
166 1 13.9062 13.8069 0.0225077 -3.54024 0.000157711
167 1 13.5588 15.5667 1.83001 -3.54002 0.000112717
168 1 16.0438 12.3976 -3.59249 -3.54014 9.30186e-05
169 1 15.6937 14.159 -1.78499 -3.54003 6.21198e-05
170 1 15.3473 15.9194 0.0225077 -3.53982 9.61042e-05
171 1 15.0038 17.6803 1.83001 -3.53965 0.00028166
172 1 17.4787 14.5114 -3.59249 -3.53994 6.23842e-05
173 1 17.1317 16.2737 -1.78499 -3.53982 0.000135708
174 1 16.7854 18.037 0.0225077 -3.53979 0.000232001
175 1 18.912 16.6291 -3.59249 -3.53991 0.000128965
176 1 18.5631 18.395 -1.78499 -3.53994 0.000148902
177 1 0.998132 -14.4965 -3.59249 -3.48949 0.452558
178 1 0.89422 -12.7555 -1.78499 -3.52948 0.425009
179 1 0.733199 -10.8803 0.0225057 -3.46722 2.57991
180 1 0.483886 -9.12969 1.83001 -3.29578 7.98798
181 1 2.6789 -12.4509 -3.59249 -3.54201 0.128964
182 1 2.44909 -10.6613 -1.78499 -3.53285 0.0992944
183 1 2.14588 -8.80803 0.0225057 -3.49907 0.260998
184 1 1.71122 -7.0474 1.83001 -3.49991 0.247134
185 1 4.16628 -10.3173 -3.59249 -3.54236 0.0285267
186 1 3.82987 -8.49873 -1.78499 -3.53832 0.0111077
187 1 3.45168 -6.68656 0.0225057 -3.53028 0.0622637
188 1 3.03174 -4.93999 1.83001 -3.53235 0.0414697
189 1 5.55025 -8.15753 -3.59249 -3.54316 0.00302426
190 1 5.18863 -6.35821 -1.78499 -3.5407 0.00742795
191 1 4.81722 -4.58353 0.0225067 -3.53574 0.0179626
192 1 4.43986 -2.84517 1.83001 -3.53441 0.00900177
193 1 6.93973 -6.02198 -3.59249 -3.54141 0.000712697
194 1 6.58363 -4.24235 -1.78499 -3.53866 0.00314635
195 1 6.21753 -2.47599 0.0225067 -3.53685 0.00621944
196 1 5.83753 -0.720426 1.83001 -3.53851 0.00293945
197 1 8.34174 -3.89562 -3.59249 -3.53967 0.000605423
198 1 7.97798 -2.11765 -1.78499 -3.53893 0.00187978
199 1 7.60257 -0.346477 0.0225067 -3.53906 0.00210647
200 1 7.21954 1.41807 1.83001 -3.53972 0.00102948
201 1 9.73392 -1.76223 -3.59249 -3.53982 0.000448479
202 1 9.36287 0.0159054 -1.78499 -3.53955 0.000915881
203 1 8.98551 1.78836 0.0225067 -3.53937 0.000929702
204 1 8.60403 3.55698 1.83001 -3.53951 0.000584334
205 1 11.1221 0.373085 -3.59249 -3.53983 0.000341193
206 1 10.749 2.15016 -1.78499 -3.53966 0.000589638
207 1 10.3718 3.92304 0.0225076 -3.53991 0.000819206
208 1 9.99373 5.69156 1.83001 -3.54039 0.00122543
209 1 12.5132 2.5061 -3.59249 -3.54005 0.00043015
210 1 12.1422 4.28018 -1.78499 -3.54013 0.000719971
211 1 11.7723 6.0486 0.0225077 -3.54008 0.000720802
212 1 11.407 7.81166 1.83001 -3.53974 0.000324936
213 1 13.915 4.63192 -3.59249 -3.54015 0.000407394
214 1 13.5517 6.4009 -1.78499 -3.53992 0.000317402
215 1 13.1908 8.16574 0.0225077 -3.53969 0.000159334
216 1 12.8319 9.92845 1.83001 -3.53971 6.62562e-05
217 1 15.3301 6.7511 -3.59249 -3.53995 0.000144822
218 1 14.972 8.51788 -1.78499 -3.53987 0.000111286
219 1 14.6148 10.2825 0.0225077 -3.53998 9.48879e-05
220 1 14.2589 12.0455 1.83001 -3.54018 0.000126543
221 1 16.7518 8.86837 -3.59249 -3.54006 8.5798e-05
222 1 16.3969 10.6341 -1.78499 -3.54012 9.78596e-05
223 1 16.0438 12.3976 0.0225077 -3.54014 9.30186e-05
224 1 15.6937 14.159 1.83001 -3.54003 6.21198e-05
225 1 18.1784 10.9843 -3.59249 -3.54015 6.32387e-05
226 1 17.8275 12.7486 -1.78499 -3.54007 5.28779e-05
227 1 17.4787 14.5114 0.0225077 -3.53994 6.23842e-05
228 1 17.1317 16.2737 1.83001 -3.53982 0.000135708
229 1 19.6091 13.0997 -3.59249 -3.54004 4.43449e-05
230 1 19.2604 14.8644 -1.78499 -3.53995 8.03196e-05
231 1 18.912 16.6291 0.0225077 -3.53991 0.000128965
232 1 18.5631 18.395 1.83001 -3.53994 0.000148902
233 1 21.0389 15.2181 -3.59249 -3.54 7.73147e-05
234 1 20.689 16.9852 -1.78499 -3.54 9.48717e-05
235 1 22.4635 17.3415 -3.59249 -3.54008 6.11875e-05
236 1 1.8922 -17.897 -3.59249 -3.44971 0.593889
237 1 1.36614 -16.1107 -1.78499 -3.44477 0.663711
238 1 0.998132 -14.4965 0.0225057 -3.48949 0.452558
239 1 0.89422 -12.7555 1.83001 -3.52948 0.425009
240 1 3.25356 -15.8519 -3.59249 -3.51731 0.101555
241 1 2.95846 -14.1615 -1.78499 -3.50876 0.0560695
242 1 2.6789 -12.4509 0.0225057 -3.54201 0.128964
243 1 2.44909 -10.6613 1.83001 -3.53295 0.0992944
244 1 4.78987 -13.8389 -3.59249 -3.52984 0.0214876
245 1 4.48531 -12.0975 -1.78499 -3.53405 0.0276019
246 1 4.16628 -10.3173 0.0225067 -3.54236 0.0285267
247 1 3.82987 -8.49873 1.83001 -3.53841 0.0111077
248 1 6.25131 -11.7382 -3.59249 -3.53681 0.00687978
249 1 5.90551 -9.95538 -1.78499 -3.541 0.0029585
250 1 5.55025 -8.15753 0.0225067 -3.54316 0.00302426
251 1 5.18863 -6.35821 1.83001 -3.5407 0.00742795
252 1 7.65266 -9.59737 -3.59249 -3.54031 0.000247969
253 1 7.29551 -7.80923 -1.78499 -3.54184 0.000797022
254 1 6.93973 -6.02198 0.0225067 -3.54141 0.000712697
255 1 6.58363 -4.24235 1.83001 -3.53866 0.00314635
256 1 9.05124 -7.4601 -3.59249 -3.54057 9.38312e-05
257 1 8.69737 -5.67714 -1.78499 -3.54043 7.53681e-05
258 1 8.34174 -3.89562 0.0225067 -3.53967 0.000605423
259 1 7.97798 -2.11765 1.83001 -3.53893 0.00187978
260 1 10.4555 -5.32702 -3.59249 -3.53997 8.24097e-05
261 1 10.0977 -3.54416 -1.78499 -3.53996 0.000181787
262 1 9.73392 -1.76223 0.0225067 -3.53982 0.000448479
263 1 9.36287 0.0159054 1.83001 -3.53955 0.000915881
264 1 11.8539 -3.19073 -3.59249 -3.54003 6.47621e-05
265 1 11.4903 -1.40772 -1.78499 -3.54004 0.000129912
266 1 11.1221 0.373085 0.0225076 -3.53983 0.000341193
267 1 10.749 2.15016 1.83001 -3.53966 0.000589638
268 1 13.2485 -1.05382 -3.59249 -3.54009 6.85027e-05
269 1 12.8824 0.727587 -1.78499 -3.54005 0.000185826
270 1 12.5132 2.5061 0.0225077 -3.54005 0.00043015
271 1 12.1422 4.28018 1.83001 -3.54013 0.000719971
272 1 14.6452 1.08007 -3.59249 -3.54022 0.000167924
273 1 14.28 2.85806 -1.78499 -3.54024 0.00031719
274 1 13.915 4.63192 0.0225077 -3.54015 0.000407394
275 1 13.5517 6.4009 1.83001 -3.53992 0.000317402
276 1 16.0497 3.20781 -3.59249 -3.54026 0.000190455
277 1 15.6893 4.98125 -1.78499 -3.54013 0.000183691
278 1 15.3301 6.7511 0.0225077 -3.53995 0.000144822
279 1 14.972 8.51788 1.83001 -3.53987 0.000111286
280 1 17.464 5.3298 -3.59249 -3.54014 8.33881e-05
281 1 17.1076 7.10031 -1.78499 -3.54006 7.78386e-05
282 1 16.7518 8.86837 0.0225077 -3.54006 8.5798e-05
283 1 16.3969 10.6341 1.83001 -3.54012 9.78596e-05
284 1 18.8846 7.44906 -3.59249 -3.54016 4.81897e-05
285 1 18.5309 9.21776 -1.78499 -3.54016 5.93199e-05
286 1 18.1784 10.9843 0.0225077 -3.54015 6.32387e-05
287 1 17.8275 12.7486 1.83001 -3.54007 5.28779e-05
288 1 20.3096 9.56679 -3.59249 -3.54019 3.16627e-05
289 1 19.9588 11.334 -1.78499 -3.54013 3.3468e-05
290 1 19.6091 13.0997 0.0225087 -3.54004 4.43449e-05
291 1 19.2604 14.8644 1.83001 -3.53995 8.03196e-05
292 1 21.7377 11.6842 -3.59249 -3.54012 2.37519e-05
293 1 21.3883 13.4514 -1.78499 -3.54005 4.67226e-05
294 1 21.0389 15.2181 0.0225087 -3.54 7.73147e-05
295 1 20.689 16.9852 1.83001 -3.54 9.48717e-05
296 1 23.1651 13.8039 -3.59249 -3.54008 4.37925e-05
297 1 22.8148 15.5725 -1.78499 -3.54006 5.96944e-05
298 1 22.4635 17.3415 0.0225087 -3.54008 6.11875e-05
299 1 24.5887 15.9273 -3.59249 -3.54011 4.04885e-05
300 1 24.2363 17.6978 -1.78499 -3.54013 3.71162e-05
301 1 26.0079 18.054 -3.59249 -3.54016 2.19026e-05
302 1 1.8922 -17.897 0.0225057 -3.44971 0.593889
303 1 1.36614 -16.1107 1.83001 -3.44477 0.663711
304 1 3.59483 -17.639 -1.78499 -3.54003 0.07886
305 1 3.25356 -15.8519 0.0225057 -3.51731 0.101555
306 1 2.95846 -14.1615 1.83001 -3.50876 0.0560695
307 1 5.37583 -17.3552 -3.59249 -3.54443 0.0168616
308 1 5.08061 -15.5878 -1.78499 -3.53584 0.00838381
309 1 4.78987 -13.8389 0.0225067 -3.52984 0.0214876
310 1 4.48531 -12.0975 1.83001 -3.53405 0.0276019
311 1 6.87832 -15.2813 -3.59249 -3.53837 0.00516403
312 1 6.57546 -13.5123 -1.78499 -3.53609 0.00993891
313 1 6.25131 -11.7382 0.0225067 -3.53681 0.00687978
314 1 5.90551 -9.95538 1.83001 -3.541 0.0029585
315 1 8.33991 -13.1699 -3.59249 -3.53872 0.00357245
316 1 8.00367 -11.3849 -1.78499 -3.53898 0.00133323
317 1 7.65266 -9.59737 0.0225067 -3.54031 0.000247969
318 1 7.29551 -7.80923 1.83001 -3.54184 0.000797022
319 1 9.75598 -11.0325 -3.59249 -3.54012 0.000275391
320 1 9.40525 -9.24527 -1.78499 -3.54032 0.000107671
321 1 9.05124 -7.4601 0.0225067 -3.54057 9.38312e-05
322 1 8.69737 -5.67714 1.83001 -3.54043 7.53681e-05
323 1 11.1621 -8.89408 -3.59249 -3.5403 5.56965e-05
324 1 10.8097 -7.11005 -1.78499 -3.54007 2.40695e-05
325 1 10.4555 -5.32702 0.0225076 -3.53997 8.24097e-05
326 1 10.0977 -3.54416 1.83001 -3.53996 0.000181787
327 1 12.5688 -6.75785 -3.59249 -3.54001 5.0959e-05
328 1 12.2132 -4.97434 -1.78499 -3.53995 6.18493e-05
329 1 11.8539 -3.19073 0.0225077 -3.54003 6.47621e-05
330 1 11.4903 -1.40772 1.83001 -3.54004 0.000129912
331 1 13.9715 -4.6203 -3.59249 -3.54005 3.79572e-05
332 1 13.6116 -2.83679 -1.78499 -3.54008 3.35506e-05
333 1 13.2485 -1.05382 0.0225077 -3.54009 6.85027e-05
334 1 12.8824 0.727587 1.83001 -3.54005 0.000185826
335 1 15.3713 -2.4828 -3.59249 -3.54015 3.51621e-05
336 1 15.0092 -0.700639 -1.78499 -3.54018 7.29948e-05
337 1 14.6452 1.08007 0.0225077 -3.54022 0.000167924
338 1 14.28 2.85806 1.83001 -3.54024 0.00031719
339 1 16.7726 -0.348241 -3.59249 -3.54026 8.76105e-05
340 1 16.4111 1.43103 -1.78499 -3.54029 0.000145939
341 1 16.0497 3.20781 0.0225077 -3.54026 0.000190455
342 1 15.6893 4.98125 1.83001 -3.54013 0.000183691
343 1 18.1797 1.78116 -3.59249 -3.5403 0.000103139
344 1 17.8214 3.55672 -1.78499 -3.54024 9.93852e-05
345 1 17.464 5.3298 0.0225077 -3.54014 8.33881e-05
346 1 17.1076 7.10031 1.83001 -3.54006 7.78386e-05
347 1 19.5943 3.90559 -3.59249 -3.54023 5.28132e-05
348 1 19.2391 5.67829 -1.78499 -3.54018 4.45638e-05
349 1 18.8846 7.44906 0.0225087 -3.54016 4.81897e-05
350 1 18.5309 9.21776 1.83001 -3.54016 5.93199e-05
351 1 21.0144 6.02703 -3.59249 -3.54022 2.70597e-05
352 1 20.6616 7.79776 -1.78499 -3.54022 2.85599e-05
353 1 20.3096 9.56679 0.0225087 -3.54019 3.16627e-05
354 1 19.9588 11.334 1.83001 -3.54013 3.3468e-05
355 1 22.4384 8.14683 -3.59249 -3.54023 1.38052e-05
356 1 22.0877 9.91615 -1.78499 -3.54019 1.47754e-05
357 1 21.7377 11.6842 0.0225087 -3.54012 2.37519e-05
358 1 21.3883 13.4514 1.83001 -3.54005 4.67226e-05
359 1 23.8647 10.2663 -3.59249 -3.54017 1.03576e-05
360 1 23.5149 12.0353 -1.78499 -3.54012 2.37452e-05
361 1 23.1651 13.8039 0.0225087 -3.54008 4.37925e-05
362 1 22.8148 15.5725 1.83001 -3.54006 5.96944e-05
363 1 25.2906 12.3874 -3.59249 -3.54014 2.34633e-05
364 1 24.94 14.1573 -1.78499 -3.54012 3.51789e-05
365 1 24.5887 15.9273 0.0225087 -3.54011 4.04885e-05
366 1 24.2363 17.6978 1.83001 -3.54013 3.71162e-05
367 1 26.7135 14.5112 -3.59249 -3.54015 2.53017e-05
368 1 26.3612 16.2825 -1.78499 -3.54015 2.55149e-05
369 1 26.0079 18.054 0.0225087 -3.54016 2.19026e-05
370 1 28.1328 16.6377 -3.59249 -3.54017 1.53794e-05
371 1 27.7788 18.4101 -1.78499 -3.54018 1.26329e-05
372 1 3.59483 -17.639 1.83001 -3.54003 0.07886
373 1 5.37583 -17.3552 0.0225067 -3.54443 0.0168616
374 1 5.08061 -15.5878 1.83001 -3.53584 0.00838381
375 1 7.17868 -17.0472 -1.78499 -3.54054 0.00325631
376 1 6.87832 -15.2813 0.0225067 -3.53837 0.00516403
377 1 6.57546 -13.5123 1.83001 -3.53609 0.00993891
378 1 8.97596 -16.7153 -3.59249 -3.53908 0.00223686
379 1 8.6611 -14.9477 -1.78499 -3.5388 0.00429148
380 1 8.33991 -13.1699 0.0225067 -3.53872 0.00357245
381 1 8.00367 -11.3849 1.83001 -3.53898 0.00133323
382 1 10.4344 -14.5981 -3.59249 -3.53938 0.00216239
383 1 10.0994 -12.8185 -1.78499 -3.53985 0.0011957
384 1 9.75598 -11.0325 0.0225067 -3.54012 0.000275391
385 1 9.40525 -9.24527 1.83001 -3.54032 0.000107671
386 1 11.8601 -12.4624 -3.59249 -3.54026 0.000437146
387 1 11.5125 -10.679 -1.78499 -3.54043 0.0001606
388 1 11.1621 -8.89408 0.0225076 -3.5403 5.56965e-05
389 1 10.8097 -7.11005 1.83001 -3.54007 2.40695e-05
390 1 13.2731 -10.3236 -3.59249 -3.54038 0.00012488
391 1 12.9217 -8.54108 -1.78499 -3.54022 6.77727e-05
392 1 12.5688 -6.75785 0.0225077 -3.54001 5.0959e-05
393 1 12.2132 -4.97434 1.83001 -3.53995 6.18493e-05
394 1 14.683 -8.18574 -3.59249 -3.54018 7.62098e-05
395 1 14.3285 -6.40351 -1.78499 -3.54009 5.6284e-05
396 1 13.9715 -4.6203 0.0225077 -3.54005 3.79572e-05
397 1 13.6116 -2.83679 1.83001 -3.54008 3.35506e-05
398 1 16.0894 -6.04763 -3.59249 -3.54016 4.68356e-05
399 1 15.7314 -4.26542 -1.78499 -3.54015 3.19875e-05
400 1 15.3713 -2.4828 0.0225077 -3.54015 3.51621e-05
401 1 15.0092 -0.700639 1.83001 -3.54018 7.29948e-05
402 1 17.4934 -3.91013 -3.59249 -3.54022 3.57898e-05
403 1 17.1335 -2.12896 -1.78499 -3.54023 4.95104e-05
404 1 16.7726 -0.348241 0.0225077 -3.54026 8.76105e-05
405 1 16.4111 1.43103 1.83001 -3.54029 0.000145939
406 1 18.8983 -1.77536 -3.59249 -3.54029 6.00553e-05
407 1 18.5389 0.00355763 -1.78499 -3.54031 8.52334e-05
408 1 18.1797 1.78116 0.0225077 -3.5403 0.000103139
409 1 17.8214 3.55672 1.83001 -3.54024 9.93852e-05
410 1 20.3077 0.35507 -3.59249 -3.54031 6.77174e-05
411 1 19.9505 2.13109 -1.78499 -3.54028 6.47617e-05
412 1 19.5943 3.90559 0.0225087 -3.54023 5.28132e-05
413 1 19.2391 5.67829 1.83001 -3.54018 4.45638e-05
414 1 21.7228 2.48124 -3.59249 -3.54027 4.03319e-05
415 1 21.3682 4.25479 -1.78499 -3.54024 3.13682e-05
416 1 21.0144 6.02703 0.0225087 -3.54022 2.70597e-05
417 1 20.6616 7.79776 1.83001 -3.54022 2.85599e-05
418 1 23.1427 4.60449 -3.59249 -3.54025 1.97083e-05
419 1 22.7901 6.37623 -1.78499 -3.54024 1.57088e-05
420 1 22.4384 8.14683 0.0225087 -3.54023 1.38052e-05
421 1 22.0877 9.91615 1.83001 -3.54019 1.47754e-05
422 1 24.5659 6.72608 -3.59249 -3.54024 7.76421e-06
423 1 24.215 8.4966 -1.78499 -3.54022 6.21049e-06
424 1 23.8647 10.2663 0.0225087 -3.54017 1.03576e-05
425 1 23.5149 12.0353 1.83001 -3.54012 2.37452e-05
426 1 25.9909 8.84729 -3.59249 -3.5402 4.99518e-06
427 1 25.6407 10.6175 -1.78499 -3.54017 1.16967e-05
428 1 25.2906 12.3874 0.0225087 -3.54014 2.34633e-05
429 1 24.94 14.1573 1.83001 -3.54012 3.51789e-05
430 1 27.4156 10.9696 -3.59249 -3.54017 1.30956e-05
431 1 27.0648 12.7403 -1.78499 -3.54016 2.05187e-05
432 1 26.7135 14.5112 0.0225087 -3.54015 2.53017e-05
433 1 26.3612 16.2825 1.83001 -3.54015 2.55149e-05
434 1 28.838 13.094 -3.59249 -3.54017 1.60544e-05
435 1 28.4858 14.8657 -1.78499 -3.54017 1.68599e-05
436 1 28.1328 16.6377 0.0225087 -3.54017 1.53794e-05
437 1 27.7788 18.4101 1.83001 -3.54018 1.26329e-05
438 1 30.2575 15.2206 -3.59249 -3.54019 1.06137e-05
439 1 29.9038 16.9932 -1.78499 -3.54019 9.03408e-06
440 1 31.6745 17.3486 -3.59249 -3.5402 5.31443e-06
441 1 7.17868 -17.0472 1.83001 -3.54054 0.00325631
442 1 8.97596 -16.7153 0.0225067 -3.53908 0.00223686
443 1 8.6611 -14.9477 1.83001 -3.5388 0.00429148
444 1 11.0918 -18.1314 -3.59249 -3.53927 0.000672977
445 1 10.7635 -16.3686 -1.78499 -3.53905 0.00179842
446 1 10.4344 -14.5981 0.0225067 -3.53938 0.00216239
447 1 10.0994 -12.8185 1.83001 -3.53985 0.0011957
448 1 12.543 -16.0135 -3.59249 -3.53945 0.00102374
449 1 12.2036 -14.2413 -1.78499 -3.53984 0.000851676
450 1 11.8601 -12.4624 0.0225077 -3.54026 0.000437146
451 1 11.5125 -10.679 1.83001 -3.54043 0.0001606
452 1 13.9717 -13.8816 -3.59249 -3.5401 0.000314962
453 1 13.6232 -12.1042 -1.78499 -3.54033 0.000194676
454 1 13.2731 -10.3236 0.0225077 -3.54038 0.00012488
455 1 12.9217 -8.54108 1.83001 -3.54022 6.77727e-05
456 1 15.3885 -11.745 -3.59249 -3.54029 0.000100895
457 1 15.0362 -9.96641 -1.78499 -3.54027 9.19755e-05
458 1 14.683 -8.18574 0.0225077 -3.54018 7.62098e-05
459 1 14.3285 -6.40351 1.83001 -3.54009 5.6284e-05
460 1 16.8007 -9.60791 -3.59249 -3.54021 6.28239e-05
461 1 16.4457 -7.82864 -1.78499 -3.54018 6.1024e-05
462 1 16.0894 -6.04763 0.0225077 -3.54016 4.68356e-05
463 1 15.7314 -4.26542 1.83001 -3.54015 3.19875e-05
464 1 18.2097 -7.4706 -3.59249 -3.5402 3.98363e-05
465 1 17.8521 -5.69091 -1.78499 -3.54021 3.65887e-05
466 1 17.4934 -3.91013 0.0225077 -3.54022 3.57898e-05
467 1 17.1335 -2.12896 1.83001 -3.54023 4.95104e-05
468 1 19.6166 -5.33398 -3.59249 -3.54025 3.06564e-05
469 1 19.2577 -3.55479 -1.78499 -3.54027 4.12434e-05
470 1 18.8983 -1.77536 0.0225087 -3.54029 6.00553e-05
471 1 18.5389 0.00355763 1.83001 -3.54031 8.52334e-05
472 1 21.0243 -3.19967 -3.59249 -3.54029 4.29167e-05
473 1 20.6657 -1.42204 -1.78499 -3.54031 5.82953e-05
474 1 20.3077 0.35507 0.0225087 -3.54031 6.77174e-05
475 1 19.9505 2.13109 1.83001 -3.54028 6.47617e-05
476 1 22.4353 -1.06892 -3.59249 -3.5403 4.74394e-05
477 1 22.0786 0.706573 -1.78499 -3.54029 4.77415e-05
478 1 21.7228 2.48124 0.0225087 -3.54027 4.03319e-05
479 1 21.3682 4.25479 1.83001 -3.54024 3.13682e-05
480 1 23.8509 1.05823 -3.59249 -3.54028 3.18735e-05
481 1 23.4963 2.83176 -1.78499 -3.54026 2.57862e-05
482 1 23.1427 4.60449 0.0225087 -3.54025 1.97083e-05
483 1 22.7901 6.37623 1.83001 -3.54024 1.57088e-05
484 1 25.2705 3.18274 -3.59249 -3.54026 1.61093e-05
485 1 24.9177 4.95476 -1.78499 -3.54025 1.15795e-05
486 1 24.5659 6.72608 0.0225087 -3.54024 7.76421e-06
487 1 24.215 8.4966 1.83001 -3.54022 6.21049e-06
488 1 26.693 5.30567 -3.59249 -3.54024 5.98867e-06
489 1 26.3416 7.07671 -1.78499 -3.54023 3.87189e-06
490 1 25.9909 8.84729 0.0225087 -3.5402 4.99518e-06
491 1 25.6407 10.6175 1.83001 -3.54017 1.16967e-05
492 1 28.117 7.42819 -3.59249 -3.54021 3.26413e-06
493 1 27.7662 9.19894 -1.78499 -3.54019 6.5553e-06
494 1 27.4156 10.9696 0.0225087 -3.54017 1.30956e-05
495 1 27.0648 12.7403 1.83001 -3.54016 2.05187e-05
496 1 29.5407 9.55148 -3.59249 -3.54019 8.05667e-06
497 1 29.1895 11.3226 -1.78499 -3.54018 1.27186e-05
498 1 28.838 13.094 0.0225087 -3.54017 1.60544e-05
499 1 28.4858 14.8657 1.83001 -3.54017 1.68599e-05
500 1 30.9626 11.6764 -3.59249 -3.54019 1.08069e-05
501 1 30.6104 13.4483 -1.78499 -3.54019 1.14134e-05
502 1 30.2575 15.2206 0.0225087 -3.54019 1.06137e-05
503 1 29.9038 16.9932 1.83001 -3.54019 9.03408e-06
504 1 32.3822 13.803 -3.59249 -3.54019 7.39779e-06
505 1 32.0287 15.5756 -1.78499 -3.5402 6.48308e-06
506 1 31.6745 17.3486 0.0225087 -3.5402 5.31443e-06
507 1 33.7997 15.9308 -3.59249 -3.54021 4.16979e-06
508 1 33.445 17.7041 -1.78499 -3.54022 3.18339e-06
509 1 35.2155 18.0595 -3.59249 -3.54023 1.74184e-06
510 1 11.0918 -18.1314 0.0225076 -3.53927 0.000672977
511 1 10.7635 -16.3686 1.83001 -3.53905 0.00179842
512 1 12.8797 -17.7791 -1.78499 -3.53936 0.000683921
513 1 12.543 -16.0135 0.0225077 -3.53945 0.00102374
514 1 12.2036 -14.2413 1.83001 -3.53984 0.000851676
515 1 14.6614 -17.4221 -3.59249 -3.53964 0.000473075
516 1 14.3177 -15.6544 -1.78499 -3.53982 0.000465418
517 1 13.9717 -13.8816 0.0225077 -3.5401 0.000314962
518 1 13.6232 -12.1042 1.83001 -3.54033 0.000194676
519 1 16.0901 -15.2937 -3.59249 -3.54004 0.000192703
520 1 15.74 -13.5209 -1.78499 -3.5402 0.000126571
521 1 15.3885 -11.745 0.0225077 -3.54029 0.000100895
522 1 15.0362 -9.96641 1.83001 -3.54027 9.19755e-05
523 1 17.5086 -13.1602 -3.59249 -3.54021 5.85464e-05
524 1 17.155 -11.3851 -1.78499 -3.54023 5.70824e-05
525 1 16.8007 -9.60791 0.0225077 -3.54021 6.28239e-05
526 1 16.4457 -7.82864 1.83001 -3.54018 6.1024e-05
527 1 18.9222 -11.0251 -3.59249 -3.5402 3.25283e-05
528 1 18.5663 -9.24873 -1.78499 -3.5402 3.80238e-05
529 1 18.2097 -7.4706 0.0225077 -3.5402 3.98363e-05
530 1 17.8521 -5.69091 1.83001 -3.54021 3.65887e-05
531 1 20.3328 -8.88946 -3.59249 -3.54021 2.04397e-05
532 1 19.975 -7.11233 -1.78499 -3.54022 2.47294e-05
533 1 19.6166 -5.33398 0.0225087 -3.54025 3.06564e-05
534 1 19.2577 -3.55479 1.83001 -3.54027 4.12434e-05
535 1 21.7417 -6.75431 -3.59249 -3.54024 1.74993e-05
536 1 21.383 -4.97725 -1.78499 -3.54027 2.83325e-05
537 1 21.0243 -3.19967 0.0225087 -3.54029 4.29167e-05
538 1 20.6657 -1.42204 1.83001 -3.54031 5.82953e-05
539 1 23.1512 -4.621 -3.59249 -3.54028 2.66303e-05
540 1 22.7929 -2.8449 -1.78499 -3.5403 3.89205e-05
541 1 22.4353 -1.06892 0.0225087 -3.5403 4.74394e-05
542 1 22.0786 0.706573 1.83001 -3.54029 4.77415e-05
543 1 24.5634 -2.49051 -3.59249 -3.54028 3.13326e-05
544 1 24.2066 -0.715921 -1.78499 -3.54028 3.44577e-05
545 1 23.8509 1.05823 0.0225087 -3.54028 3.18735e-05
546 1 23.4963 2.83176 1.83001 -3.54026 2.57862e-05
547 1 25.9792 -0.36297 -3.59249 -3.54027 2.33176e-05
548 1 25.6243 1.41012 -1.78499 -3.54026 2.04926e-05
549 1 25.2705 3.18274 0.0225087 -3.54026 1.61093e-05
550 1 24.9177 4.95476 1.83001 -3.54025 1.15795e-05
551 1 27.3985 1.76227 -3.59249 -3.54025 1.2337e-05
552 1 27.0453 3.53418 -1.78499 -3.54025 9.15874e-06
553 1 26.693 5.30567 0.0225087 -3.54024 5.98867e-06
554 1 26.3416 7.07671 1.83001 -3.54023 3.87189e-06
555 1 28.8202 3.88611 -3.59249 -3.54024 4.61901e-06
556 1 28.4682 5.65727 -1.78499 -3.54023 3.11607e-06
557 1 28.117 7.42819 0.0225087 -3.54021 3.26413e-06
558 1 27.7662 9.19894 1.83001 -3.54019 6.5553e-06
559 1 30.2432 6.00954 -3.59249 -3.54021 2.31131e-06
560 1 29.8918 7.78049 -1.78499 -3.5402 4.14573e-06
561 1 29.5407 9.55148 0.0225087 -3.54019 8.05667e-06
562 1 29.1895 11.3226 1.83001 -3.54018 1.27186e-05
563 1 31.6662 8.13352 -3.59249 -3.5402 5.15813e-06
564 1 31.3145 9.9048 -1.78499 -3.54019 8.47394e-06
565 1 30.9626 11.6764 0.0225087 -3.54019 1.08069e-05
566 1 30.6104 13.4483 1.83001 -3.54019 1.14134e-05
567 1 33.0877 10.2587 -3.59249 -3.5402 7.7119e-06
568 1 32.7352 12.0307 -1.78499 -3.54019 7.99721e-06
569 1 32.3822 13.803 0.0225087 -3.54019 7.39779e-06
570 1 32.0287 15.5756 1.83001 -3.5402 6.48308e-06
571 1 34.5072 12.3854 -3.59249 -3.54019 4.96709e-06
572 1 34.1537 14.1579 -1.78499 -3.5402 4.54307e-06
573 1 33.7997 15.9308 0.0225087 -3.54021 4.16979e-06
574 1 33.445 17.7041 1.83001 -3.54022 3.18339e-06
575 1 35.925 14.513 -3.59249 -3.54021 3.28421e-06
576 1 35.5705 16.2861 -1.78499 -3.54022 3.10997e-06
577 1 35.2155 18.0595 0.0225087 -3.54023 1.74184e-06
578 1 37.3414 16.6413 -3.59249 -3.54024 2.32424e-06