ITEM: TIMESTEP
0
ITEM: NUMBER OF ATOMS
2504
ITEM: BOX BOUNDS xy xz yz mm pp pp
-5.5498871899999997e+01 5.5498871899999997e+01 0.0000000000000000e+00
-1.8432957300000002e+01 1.8432957300000002e+01 0.0000000000000000e+00
-3.6150000000000002e+00 3.6150000000000002e+00 0.0000000000000000e+00
ITEM: ATOMS id type x y z c_eng c_csym
1 1 0.63545 16.7369 -3.6079 -3.44282 3.63855
2 1 0.287634 -18.3165 -1.80039 -3.2857 9.13387
3 1 1.00635 13.0273 -3.60789 -3.48981 0.379307
4 1 0.874363 14.7785 -1.80039 -3.50378 0.589776
5 1 0.63545 16.7369 0.00710487 -3.44282 3.63855
6 1 0.287634 -18.3165 1.81461 -3.2857 9.13387
7 1 2.59582 15.1685 -3.60789 -3.54168 0.121028
8 1 2.29203 17.0006 -1.80039 -3.52221 0.0774254
9 1 3.98376 17.3691 -3.60789 -3.54569 0.0288418
10 1 0.573845 7.44954 -3.6079 -3.49744 2.04055
11 1 0.224478 9.22911 -1.80039 -3.31491 5.65488
12 1 1.85369 9.63274 -3.60789 -3.48139 0.408111
13 1 1.36263 11.3901 -1.80039 -3.47324 0.468495
14 1 1.00635 13.0273 0.0071051 -3.48981 0.379307
15 1 0.874363 14.7785 1.81461 -3.50378 0.589776
16 1 3.23359 11.7078 -3.60789 -3.5213 0.0485496
17 1 2.92433 13.4113 -1.80039 -3.51181 0.0778983
18 1 2.59582 15.1685 0.00710521 -3.54168 0.121028
19 1 2.29203 17.0006 1.81461 -3.52221 0.0774254
20 1 4.71425 13.7907 -3.60789 -3.53279 0.0147226
21 1 4.35725 15.5595 -1.80039 -3.53817 0.0114253
22 1 3.98376 17.3691 0.00710533 -3.54569 0.0288418
23 1 6.11189 15.9377 -3.60789 -3.54083 0.00236387
24 1 5.74184 17.7192 -1.80039 -3.54475 0.0117965
25 1 7.52763 18.0632 -3.60789 -3.54116 0.0021515
26 1 1.06598 3.7863 -3.60789 -3.50948 0.266232
27 1 0.862055 5.54972 -1.80039 -3.52786 0.260734
28 1 0.573845 7.44954 0.00710487 -3.49744 2.04054
29 1 0.224478 9.22911 1.81461 -3.31521 5.65488
30 1 2.59394 5.94284 -3.60789 -3.54213 0.0667608
31 1 2.26658 7.75582 -1.80039 -3.52393 0.0484329
32 1 1.85369 9.63274 0.00710525 -3.48139 0.408111
33 1 1.36263 11.3901 1.81461 -3.47324 0.468495
34 1 3.9699 8.14007 -3.60789 -3.54516 0.0198865
35 1 3.5863 9.94378 -1.80039 -3.54316 0.0490451
36 1 3.23359 11.7078 0.00710537 -3.5213 0.0485496
37 1 2.92433 13.4113 1.81461 -3.51181 0.0778983
38 1 5.37541 10.2709 -3.60789 -3.54263 0.00592041
39 1 5.04936 12.0297 -1.80039 -3.5346 0.00817056
40 1 4.71425 13.7907 0.00710577 -3.53279 0.0147226
41 1 4.35725 15.5595 1.81461 -3.53817 0.0114253
42 1 6.82996 12.3809 -3.60789 -3.53835 0.00311011
43 1 6.47978 14.1558 -1.80039 -3.5382 0.00187753
44 1 6.11189 15.9377 0.00710582 -3.54083 0.00236387
45 1 5.74184 17.7192 1.81461 -3.54475 0.0117965
46 1 8.24296 14.5169 -3.60789 -3.54076 0.00039041
47 1 7.88131 16.2934 -1.80039 -3.54141 0.00217205
48 1 7.52763 18.0632 0.00710594 -3.54116 0.0021515
49 1 9.66121 16.6425 -3.60789 -3.54076 0.000601655
50 1 9.31569 18.4086 -1.80039 -3.53966 0.000243008
51 1 0.582242 -1.77609 -3.6079 -3.50302 1.88313
52 1 0.237413 -0.00526359 -1.80039 -3.32677 5.14513
53 1 1.90554 0.378955 -3.60789 -3.49551 0.329458
54 1 1.44193 2.12998 -1.80039 -3.48421 0.351952
55 1 1.06598 3.7863 0.0071051 -3.50948 0.266213
56 1 0.862055 5.54972 1.81461 -3.52755 0.260734
57 1 3.2822 2.47195 -3.60789 -3.52533 0.0323898
58 1 2.94554 4.18892 -1.80039 -3.52145 0.0428746
59 1 2.59394 5.94284 0.00710521 -3.54213 0.0667608
60 1 2.26658 7.75582 1.81461 -3.52398 0.0484329
61 1 4.72716 4.57424 -3.60789 -3.53422 0.0091063
62 1 4.35688 6.3409 -1.80039 -3.53808 0.00677307
63 1 3.9699 8.14007 0.00710533 -3.54516 0.0198865
64 1 3.5863 9.94378 1.81461 -3.54316 0.0490451
65 1 6.11177 6.72457 -3.60789 -3.54072 0.00229966
66 1 5.73175 8.50119 -1.80039 -3.54401 0.00951623
67 1 5.37541 10.2709 0.00710581 -3.54263 0.00592041
68 1 5.04936 12.0297 1.81461 -3.5346 0.00817056
69 1 7.51739 8.85346 -3.60789 -3.54078 0.00166415
70 1 7.17041 10.6147 -1.80039 -3.53918 0.00107491
71 1 6.82996 12.3809 0.00710594 -3.53835 0.00311011
72 1 6.47978 14.1558 1.81461 -3.5382 0.00187753
73 1 8.95339 10.9702 -3.60789 -3.53911 0.000657747
74 1 8.60134 12.7403 -1.80039 -3.53974 0.000559351
75 1 8.24296 14.5169 0.00710598 -3.54076 0.00039041
76 1 7.88131 16.2934 1.81461 -3.54141 0.00217205
77 1 10.3725 13.0996 -3.60789 -3.54048 8.07396e-05
78 1 10.0148 14.8721 -1.80039 -3.54107 0.000517555
79 1 9.66121 16.6425 0.0071061 -3.54076 0.000601655
80 1 9.31569 18.4086 1.81461 -3.53966 0.000243008
81 1 11.7929 15.2247 -3.60789 -3.54059 0.000180976
82 1 11.4433 16.9923 -1.80039 -3.54012 7.35296e-05
83 1 13.2231 17.3448 -3.60789 -3.53994 6.82872e-05
84 1 1.08833 -5.41215 -3.60789 -3.5039 0.292483
85 1 0.872527 -3.66626 -1.80039 -3.53176 0.261489
86 1 0.582242 -1.77609 0.00710487 -3.50302 1.88312
87 1 0.237413 -0.00526359 1.81461 -3.32698 5.14513
88 1 2.61925 -3.26328 -3.60789 -3.54393 0.0609686
89 1 2.29284 -1.47052 -1.80039 -3.5302 0.0399528
90 1 1.90554 0.378955 0.00710525 -3.49551 0.329449
91 1 1.44193 2.12998 1.81461 -3.48457 0.351952
92 1 4.01732 -1.08558 -3.60789 -3.54577 0.0111747
93 1 3.64212 0.705251 -1.80039 -3.54247 0.0218092
94 1 3.2822 2.47195 0.00710537 -3.52533 0.0323898
95 1 2.94554 4.18892 1.81461 -3.52149 0.0428746
96 1 5.42055 1.04948 -3.60789 -3.54246 0.00229129
97 1 5.07864 2.81111 -1.80039 -3.53639 0.004567
98 1 4.72716 4.57424 0.00710577 -3.53422 0.0091063
99 1 4.35688 6.3409 1.81461 -3.53808 0.00677307
100 1 6.85129 3.17119 -3.60789 -3.53903 0.00171276
101 1 6.48941 4.94534 -1.80039 -3.53863 0.00127295
102 1 6.11177 6.72457 0.00710582 -3.54072 0.00229966
103 1 5.73175 8.50119 1.81461 -3.54401 0.00951623
104 1 8.25047 5.31114 -3.60789 -3.54074 0.000481166
105 1 7.88022 7.08598 -1.80039 -3.54126 0.00211156
106 1 7.51739 8.85346 0.00710594 -3.54078 0.00166415
107 1 7.17041 10.6147 1.81461 -3.53918 0.00107491
108 1 9.65809 7.43966 -3.60789 -3.5406 0.000558391
109 1 9.30352 9.20521 -1.80039 -3.53954 0.000161133
110 1 8.95339 10.9702 0.00710607 -3.53911 0.000657747
111 1 8.60134 12.7403 1.81461 -3.53974 0.000559351
112 1 11.0836 9.55976 -3.60789 -3.53961 0.000106425
113 1 10.7293 11.3283 -1.80039 -3.53976 0.000123273
114 1 10.3725 13.0996 0.00710616 -3.54048 8.07396e-05
115 1 10.0148 14.8721 1.81461 -3.54107 0.000517555
116 1 12.5036 11.6852 -3.60789 -3.54022 1.32479e-05
117 1 12.1472 13.4555 -1.80039 -3.54057 0.000118972
118 1 11.7929 15.2247 0.00710661 -3.54059 0.000180976
119 1 11.4433 16.9923 1.81461 -3.54012 7.35296e-05
120 1 13.9243 13.8093 -3.60789 -3.54038 5.34578e-05
121 1 13.5724 15.5773 -1.80039 -3.5402 2.64595e-05
122 1 13.2231 17.3448 0.00710679 -3.53994 6.82872e-05
123 1 15.3505 15.9309 -3.60789 -3.54007 2.11144e-05
124 1 15 17.6994 -1.80039 -3.54 5.69532e-05
125 1 16.7749 18.0549 -3.60789 -3.5401 2.84867e-05
126 1 0.668948 -10.9237 -3.6079 -3.4536 3.32791
127 1 0.346962 -9.13428 -1.80039 -3.29724 8.6704
128 1 1.97797 -8.78287 -3.60789 -3.47713 0.50464
129 1 1.49766 -7.0305 -1.80039 -3.45926 0.514624
130 1 1.08833 -5.41215 0.0071051 -3.5039 0.292464
131 1 0.872527 -3.66626 1.81461 -3.53146 0.261489
132 1 3.33147 -6.70476 -3.60789 -3.52316 0.0634635
133 1 2.98341 -4.99446 -1.80039 -3.51811 0.047388
134 1 2.61925 -3.26328 0.00710521 -3.54393 0.0609686
135 1 2.29284 -1.47052 1.81461 -3.53026 0.0399528
136 1 4.76913 -4.61944 -3.60789 -3.53335 0.0129502
137 1 4.39851 -2.86402 -1.80039 -3.53768 0.0047832
138 1 4.01732 -1.08558 0.00710564 -3.54577 0.0111747
139 1 3.64212 0.705251 1.81461 -3.54248 0.0218092
140 1 6.16038 -2.4863 -3.60789 -3.53947 0.00175668
141 1 5.78296 -0.716657 -1.80039 -3.54274 0.00323316
142 1 5.42055 1.04948 0.00710581 -3.54246 0.00229129
143 1 5.07864 2.81111 1.81461 -3.53639 0.004567
144 1 7.561 -0.359173 -3.60789 -3.54027 0.000711232
145 1 7.20465 1.40411 -1.80039 -3.53951 0.00050179
146 1 6.85129 3.17119 0.00710594 -3.53903 0.00171276
147 1 6.48941 4.94534 1.81461 -3.53863 0.00127295
148 1 8.97919 1.7637 -3.60789 -3.53927 0.000419989
149 1 8.61788 3.5353 -1.80039 -3.53984 0.000281128
150 1 8.25047 5.31114 0.00710598 -3.54074 0.000481166
151 1 7.88022 7.08598 1.81461 -3.54126 0.00211156
152 1 10.3846 3.89636 -3.60789 -3.54037 0.000133612
153 1 10.0197 5.66965 -1.80039 -3.54091 0.000550304
154 1 9.65809 7.43966 0.0071061 -3.5406 0.000558391
155 1 9.30352 9.20521 1.81461 -3.53954 0.000161133
156 1 11.7943 6.02396 -3.60789 -3.54046 0.000208664
157 1 11.4375 7.79249 -1.80039 -3.54004 6.00268e-05
158 1 11.0836 9.55976 0.00710654 -3.53961 0.000106425
159 1 10.7293 11.3283 1.81461 -3.53976 0.000123273
160 1 13.2147 8.14615 -3.60789 -3.53994 2.18907e-05
161 1 12.8597 9.91531 -1.80039 -3.53994 2.55823e-05
162 1 12.5036 11.6852 0.00710669 -3.54022 1.32479e-05
163 1 12.1472 13.4555 1.81461 -3.54057 0.000118972
164 1 14.6345 10.2702 -3.60789 -3.54018 7.4512e-06
165 1 14.2789 12.0402 -1.80039 -3.54034 3.23395e-05
166 1 13.9243 13.8093 0.00710684 -3.54038 5.34578e-05
167 1 13.5724 15.5773 1.81461 -3.5402 2.64595e-05
168 1 16.055 12.3938 -3.60789 -3.54029 1.97345e-05
169 1 15.702 14.1626 -1.80039 -3.5402 1.16786e-05
170 1 15.3505 15.9309 0.00710707 -3.54007 2.11144e-05
171 1 15 17.6994 1.81461 -3.54 5.69532e-05
172 1 17.4786 14.5162 -3.60789 -3.54013 9.37074e-06
173 1 17.1268 16.2853 -1.80039 -3.54008 2.2739e-05
174 1 16.7749 18.0549 0.0071073 -3.5401 2.84867e-05
175 1 18.9015 16.6402 -3.60789 -3.54013 1.53557e-05
176 1 18.5487 18.4106 -1.80039 -3.54016 1.25634e-05
177 1 1.01866 -14.598 -3.60789 -3.48089 0.47816
178 1 0.896962 -12.8541 -1.80039 -3.51329 0.533338
179 1 0.668948 -10.9237 0.00710487 -3.4536 3.32791
180 1 0.346962 -9.13428 1.81461 -3.29713 8.6704
181 1 2.6356 -12.4793 -3.60789 -3.54311 0.123583
182 1 2.34723 -10.6656 -1.80039 -3.52782 0.0748798
183 1 1.97797 -8.78287 0.00710525 -3.47713 0.504631
184 1 1.49766 -7.0305 1.81461 -3.45963 0.514624
185 1 4.05011 -10.2985 -3.60789 -3.54638 0.0197991
186 1 3.68831 -8.48647 -1.80039 -3.5428 0.0289635
187 1 3.33147 -6.70476 0.00710537 -3.52316 0.0634635
188 1 2.98341 -4.99446 1.81461 -3.51815 0.047388
189 1 5.45201 -8.15962 -3.60789 -3.54396 0.00375901
190 1 5.11775 -6.38581 -1.80039 -3.53717 0.00546478
191 1 4.76913 -4.61944 0.00710577 -3.53335 0.0129502
192 1 4.39851 -2.86402 1.81461 -3.53768 0.0047832
193 1 6.88416 -6.04096 -3.60789 -3.5396 0.00135926
194 1 6.5309 -4.26268 -1.80039 -3.53843 0.00200905
195 1 6.16038 -2.4863 0.00710582 -3.53947 0.00175668
196 1 5.78296 -0.716657 1.81461 -3.54274 0.00323316
197 1 8.28903 -3.90684 -3.60789 -3.5405 0.000213333
198 1 7.92491 -2.12896 -1.80039 -3.54056 0.00099354
199 1 7.561 -0.359173 0.00710594 -3.54027 0.000711232
200 1 7.20465 1.40411 1.81461 -3.53951 0.00050179
201 1 9.69383 -1.7771 -3.60789 -3.54048 0.000198148
202 1 9.33666 -0.00558499 -1.80039 -3.53959 0.000199984
203 1 8.97919 1.7637 0.00710607 -3.53927 0.000419989
204 1 8.61788 3.5353 1.81461 -3.53984 0.000281128
205 1 11.1073 0.348848 -3.60789 -3.53976 9.97778e-05
206 1 10.748 2.1224 -1.80039 -3.53978 0.000110863
207 1 10.3846 3.89636 0.00710647 -3.54037 0.000133612
208 1 10.0197 5.66965 1.81461 -3.54091 0.000550304
209 1 12.5159 2.47875 -3.60789 -3.54022 5.5567e-05
210 1 12.1546 4.25259 -1.80039 -3.54046 0.000181471
211 1 11.7943 6.02396 0.00710661 -3.54046 0.000208664
212 1 11.4375 7.79249 1.81461 -3.54004 6.00268e-05
213 1 13.9271 4.60595 -3.60789 -3.54034 8.97797e-05
214 1 13.5701 6.37683 -1.80039 -3.54015 4.36788e-05
215 1 13.2147 8.14615 0.00710679 -3.53994 2.18907e-05
216 1 12.8597 9.91531 1.81461 -3.53994 2.55823e-05
217 1 15.3451 6.7296 -3.60789 -3.54009 1.20559e-05
218 1 14.9899 8.50004 -1.80039 -3.54006 9.53017e-06
219 1 14.6345 10.2702 0.00710697 -3.54018 7.4512e-06
220 1 14.2789 12.0402 1.81461 -3.54034 3.23395e-05
221 1 16.7643 8.85353 -3.60789 -3.54018 6.42058e-06
222 1 16.4094 10.6241 -1.80039 -3.54026 1.35804e-05
223 1 16.055 12.3938 0.00710715 -3.54029 1.97345e-05
224 1 15.702 14.1626 1.81461 -3.5402 1.16786e-05
225 1 18.1845 10.9772 -3.60789 -3.54024 9.20457e-06
226 1 17.8311 12.747 -1.80039 -3.54021 7.11692e-06
227 1 17.4786 14.5162 0.0071074 -3.54013 9.37074e-06
228 1 17.1268 16.2853 1.81461 -3.54008 2.2739e-05
229 1 19.6065 13.1003 -3.60789 -3.54017 5.30498e-06
230 1 19.254 14.8702 -1.80039 -3.54013 1.09671e-05
231 1 18.9015 16.6402 0.00710767 -3.54013 1.53557e-05
232 1 18.5487 18.4106 1.81461 -3.54016 1.25634e-05
233 1 21.0283 15.2245 -3.60789 -3.54015 8.78563e-06
234 1 20.6752 16.9952 -1.80039 -3.54017 8.90586e-06
235 1 22.4481 17.3503 -3.60789 -3.54019 5.32154e-06
236 1 1.89786 -17.9591 -3.60789 -3.45679 0.66306
237 1 1.38869 -16.1986 -1.80039 -3.43475 0.71693
238 1 1.01866 -14.598 0.0071051 -3.48089 0.47816
239 1 0.896962 -12.8541 1.81461 -3.51329 0.533338
240 1 3.26891 -15.9051 -3.60789 -3.51761 0.0789361
241 1 2.96026 -14.2125 -1.80039 -3.50863 0.0818385
242 1 2.6356 -12.4793 0.00710521 -3.54311 0.123583
243 1 2.34723 -10.6656 1.81461 -3.52784 0.0748798
244 1 4.76049 -13.8482 -3.60789 -3.53148 0.0189835
245 1 4.41287 -12.0918 -1.80039 -3.53733 0.0119669
246 1 4.05011 -10.2985 0.00710564 -3.54638 0.0197991
247 1 3.68831 -8.48647 1.81461 -3.54281 0.0289635
248 1 6.17104 -11.7172 -3.60789 -3.53964 0.000985524
249 1 5.80443 -9.93897 -1.80039 -3.54384 0.00416018
250 1 5.45201 -8.15962 0.00710581 -3.54396 0.00375901
251 1 5.11775 -6.38581 1.81461 -3.53717 0.00546478
252 1 7.57681 -9.58652 -3.60789 -3.54085 0.000534943
253 1 7.22864 -7.81578 -1.80039 -3.54034 0.000548089
254 1 6.88416 -6.04096 0.00710594 -3.5396 0.00135926
255 1 6.5309 -4.26268 1.81461 -3.53843 0.00200905
256 1 8.99994 -7.46288 -3.60789 -3.53963 0.000306662
257 1 8.64736 -5.68675 -1.80039 -3.54008 0.000329024
258 1 8.28903 -3.90684 0.00710598 -3.5405 0.000213333
259 1 7.92491 -2.12896 1.81461 -3.54056 0.00099354
260 1 10.4111 -5.33072 -3.60789 -3.54036 3.58025e-05
261 1 10.0525 -3.5529 -1.80039 -3.54077 0.000125905
262 1 9.69383 -1.7771 0.0071061 -3.54048 0.000198148
263 1 9.33666 -0.00558499 1.81461 -3.53959 0.000199984
264 1 11.8201 -3.19974 -3.60789 -3.54046 3.18347e-05
265 1 11.4638 -1.42491 -1.80039 -3.54016 1.6648e-05
266 1 11.1073 0.348848 0.00710654 -3.53976 9.97778e-05
267 1 10.748 2.1224 1.81461 -3.53978 0.000110863
268 1 13.233 -1.0713 -3.60789 -3.54008 9.81506e-06
269 1 12.8756 0.703765 -1.80039 -3.54006 2.22039e-05
270 1 12.5159 2.47875 0.00710669 -3.54022 5.5567e-05
271 1 12.1546 4.25259 1.81461 -3.54046 0.000181471
272 1 14.6441 1.0582 -3.60789 -3.54025 1.60613e-05
273 1 14.2855 2.83288 -1.80039 -3.54036 6.23169e-05
274 1 13.9271 4.60595 0.00710684 -3.54034 8.97797e-05
275 1 13.5701 6.37683 1.81461 -3.54015 4.36788e-05
276 1 16.0569 3.18577 -3.60789 -3.54032 3.58732e-05
277 1 15.7006 4.95835 -1.80039 -3.54022 2.55663e-05
278 1 15.3451 6.7296 0.00710707 -3.54009 1.20559e-05
279 1 14.9899 8.50004 1.81461 -3.54006 9.53017e-06
280 1 17.474 5.31073 -3.60789 -3.54018 6.78374e-06
281 1 17.1192 7.08242 -1.80039 -3.54014 5.04422e-06
282 1 16.7643 8.85353 0.0071073 -3.54018 6.42058e-06
283 1 16.4094 10.6241 1.81461 -3.54026 1.35804e-05
284 1 18.8929 7.4352 -3.60789 -3.5402 3.5027e-06
285 1 18.5385 9.20654 -1.80039 -3.54023 6.64068e-06
286 1 18.1845 10.9772 0.00710754 -3.54024 9.20457e-06
287 1 17.8311 12.747 1.81461 -3.54021 7.11692e-06
288 1 20.3128 9.5593 -3.60789 -3.54023 4.00894e-06
289 1 19.9594 11.3301 -1.80039 -3.54021 3.97672e-06
290 1 19.6065 13.1003 0.00710809 -3.54017 5.30498e-06
291 1 19.254 14.8702 1.81461 -3.54013 1.09671e-05
292 1 21.7339 11.6831 -3.60789 -3.54019 2.62945e-06
293 1 21.3811 13.4538 -1.80039 -3.54016 5.62367e-06
294 1 21.0283 15.2245 0.00710834 -3.54015 8.78563e-06
295 1 20.6752 16.9952 1.81461 -3.54017 8.90586e-06
296 1 23.1548 13.8077 -3.60789 -3.54018 4.82171e-06
297 1 22.8016 15.5789 -1.80039 -3.54018 5.88071e-06
298 1 22.4481 17.3503 0.00710854 -3.54019 5.32154e-06
299 1 24.5744 15.9335 -3.60789 -3.54019 3.76221e-06
300 1 24.2206 17.7053 -1.80039 -3.5402 3.3571e-06
301 1 25.9927 18.0603 -3.60789 -3.5402 2.11949e-06
302 1 1.89786 -17.9591 0.00710525 -3.45679 0.66306
303 1 1.38869 -16.1986 1.81461 -3.43475 0.71693
304 1 3.61409 -17.6789 -1.80039 -3.54303 0.0600207
305 1 3.26891 -15.9051 0.00710537 -3.51761 0.0789361
306 1 2.96026 -14.2125 1.81461 -3.50863 0.0818385
307 1 5.39692 -17.3702 -3.60789 -3.54381 0.00843156
308 1 5.08363 -15.6064 -1.80039 -3.53506 0.00900624
309 1 4.76049 -13.8482 0.00710577 -3.53148 0.0189835
310 1 4.41287 -12.0918 1.81461 -3.53733 0.0119669
311 1 6.86477 -15.271 -3.60789 -3.5386 0.00384976
312 1 6.52832 -13.4961 -1.80039 -3.53769 0.0036749
313 1 6.17104 -11.7172 0.00710582 -3.53964 0.000985524
314 1 5.80443 -9.93897 1.81461 -3.54384 0.00416018
315 1 8.28845 -13.1416 -3.60789 -3.54032 0.000306974
316 1 7.93302 -11.3615 -1.80039 -3.54073 0.000491801
317 1 7.57681 -9.58652 0.00710594 -3.54085 0.000534943
318 1 7.22864 -7.81578 1.81461 -3.54034 0.000548089
319 1 9.7008 -11.0106 -3.60789 -3.54063 0.000102166
320 1 9.35004 -9.23618 -1.80039 -3.53986 4.90406e-05
321 1 8.99994 -7.46288 0.00710607 -3.53963 0.000306662
322 1 8.64736 -5.68675 1.81461 -3.54008 0.000329024
323 1 11.1199 -8.88364 -3.60789 -3.53988 6.94013e-05
324 1 10.7672 -7.10789 -1.80039 -3.53988 9.47761e-05
325 1 10.4111 -5.33072 0.00710647 -3.54036 3.58025e-05
326 1 10.0525 -3.5529 1.81461 -3.54077 0.000125905
327 1 12.5335 -6.75272 -3.60789 -3.54019 1.46681e-05
328 1 12.177 -4.9759 -1.80039 -3.5404 2.2015e-05
329 1 11.8201 -3.19974 0.00710661 -3.54046 3.18347e-05
330 1 11.4638 -1.42491 1.81461 -3.54016 1.6648e-05
331 1 13.945 -4.62182 -3.60789 -3.54032 8.55582e-06
332 1 13.589 -2.84635 -1.80039 -3.54022 1.74499e-06
333 1 13.233 -1.0713 0.00710679 -3.54008 9.81506e-06
334 1 12.8756 0.703765 1.81461 -3.54006 2.22039e-05
335 1 15.3581 -2.49238 -3.60789 -3.54016 1.49011e-06
336 1 15.0017 -0.717089 -1.80039 -3.54016 3.60728e-06
337 1 14.6441 1.0582 0.00710697 -3.54025 1.60613e-05
338 1 14.2855 2.83288 1.81461 -3.54036 6.23169e-05
339 1 16.7708 -0.362989 -3.60789 -3.54024 7.07777e-06
340 1 16.4138 1.41182 -1.80039 -3.54031 2.2693e-05
341 1 16.0569 3.18577 0.00710715 -3.54032 3.58732e-05
342 1 15.7006 4.95835 1.81461 -3.54022 2.55663e-05
343 1 18.1849 1.76492 -3.60789 -3.54029 1.62042e-05
344 1 17.8292 3.53828 -1.80039 -3.54025 1.34012e-05
345 1 17.474 5.31073 0.0071074 -3.54018 6.78374e-06
346 1 17.1192 7.08242 1.81461 -3.54014 5.04422e-06
347 1 19.6019 3.89086 -3.60789 -3.54022 4.75229e-06
348 1 19.2473 5.66329 -1.80039 -3.5402 2.75626e-06
349 1 18.8929 7.4352 0.00710798 -3.5402 3.5027e-06
350 1 18.5385 9.20654 1.81461 -3.54023 6.64068e-06
351 1 21.0205 6.01599 -3.60789 -3.54022 1.98536e-06
352 1 20.6665 7.78792 -1.80039 -3.54023 2.89826e-06
353 1 20.3128 9.5593 0.00710823 -3.54023 4.00894e-06
354 1 19.9594 11.3301 1.81461 -3.54021 3.97672e-06
355 1 22.4402 8.14069 -3.60789 -3.54023 1.62474e-06
356 1 22.0869 9.91212 -1.80039 -3.54022 1.69003e-06
357 1 21.7339 11.6831 0.00710847 -3.54019 2.62945e-06
358 1 21.3811 13.4538 1.81461 -3.54016 5.62367e-06
359 1 23.8607 10.2652 -3.60789 -3.54021 1.10326e-06
360 1 23.5078 12.0365 -1.80039 -3.54019 2.68314e-06
361 1 23.1548 13.8077 0.00710867 -3.54018 4.82171e-06
362 1 22.8016 15.5789 1.81461 -3.54018 5.88071e-06
363 1 25.2811 12.3902 -3.60789 -3.54019 2.53122e-06
364 1 24.9279 14.1618 -1.80039 -3.54019 3.54754e-06
365 1 24.5744 15.9335 0.00710887 -3.54019 3.76221e-06
366 1 24.2206 17.7053 1.81461 -3.5402 3.3571e-06
367 1 26.7006 14.5161 -3.60789 -3.5402 2.43982e-06
368 1 26.3468 16.2882 -1.80039 -3.5402 2.38131e-06
369 1 25.9927 18.0603 0.00710912 -3.5402 2.11949e-06
370 1 28.1189 16.6429 -3.60789 -3.54021 1.46634e-06
371 1 27.7646 18.4153 -1.80039 -3.54021 1.28444e-06
372 1 3.61409 -17.6789 1.81461 -3.54303 0.0600207
373 1 5.39692 -17.3702 0.00710581 -3.54381 0.00843156
374 1 5.08363 -15.6064 1.81461 -3.53506 0.00900624
375 1 7.19175 -17.039 -1.80039 -3.53973 0.00155736
376 1 6.86477 -15.271 0.00710594 -3.5386 0.00384976
377 1 6.52832 -13.4961 1.81461 -3.53769 0.0036749
378 1 8.97617 -16.6916 -3.60789 -3.53917 0.00107869
379 1 8.63591 -14.9203 -1.80039 -3.53965 0.00133434
380 1 8.28845 -13.1416 0.00710598 -3.54032 0.000306974
381 1 7.93302 -11.3615 1.81461 -3.54073 0.000491801
382 1 10.4044 -14.5644 -3.60789 -3.54026 0.000233159
383 1 10.053 -12.7876 -1.80039 -3.54082 8.51301e-05
384 1 9.7008 -11.0106 0.0071061 -3.54063 0.000102166
385 1 9.35004 -9.23618 1.81461 -3.53986 4.90406e-05
386 1 11.822 -12.4337 -3.60789 -3.54056 3.41626e-05
387 1 11.4708 -10.6587 -1.80039 -3.54028 1.678e-05
388 1 11.1199 -8.88364 0.00710654 -3.53988 6.94013e-05
389 1 10.7672 -7.10789 1.81461 -3.53988 9.47761e-05
390 1 13.2407 -10.3046 -3.60789 -3.54016 3.11009e-05
391 1 12.888 -8.5292 -1.80039 -3.54009 3.71591e-05
392 1 12.5335 -6.75272 0.00710669 -3.54019 1.46681e-05
393 1 12.177 -4.9759 1.81461 -3.5404 2.2015e-05
394 1 14.656 -8.17386 -3.60789 -3.54023 1.32048e-05
395 1 14.3008 -6.39784 -1.80039 -3.54031 7.68495e-06
396 1 13.945 -4.62182 0.00710684 -3.54032 8.55582e-06
397 1 13.589 -2.84635 1.81461 -3.54022 1.74499e-06
398 1 16.0694 -6.04302 -3.60789 -3.54029 5.3311e-06
399 1 15.7139 -4.26766 -1.80039 -3.54023 2.30517e-06
400 1 15.3581 -2.49238 0.00710707 -3.54016 1.49011e-06
401 1 15.0017 -0.717089 1.81461 -3.54016 3.60728e-06
402 1 17.4833 -3.91315 -3.60789 -3.54021 2.27263e-06
403 1 17.1274 -2.13809 -1.80039 -3.5402 2.32839e-06
404 1 16.7708 -0.362989 0.0071073 -3.54024 7.07777e-06
405 1 16.4138 1.41182 1.81461 -3.54031 2.2693e-05
406 1 18.8972 -1.78379 -3.60789 -3.54024 4.87409e-06
407 1 18.541 -0.00921801 -1.80039 -3.54028 1.06872e-05
408 1 18.1849 1.76492 0.00710754 -3.54029 1.62042e-05
409 1 17.8292 3.53828 1.81461 -3.54025 1.34012e-05
410 1 20.3121 0.344328 -3.60789 -3.54027 8.85581e-06
411 1 19.9568 2.11787 -1.80039 -3.54025 8.13184e-06
412 1 19.6019 3.89086 0.00710809 -3.54022 4.75229e-06
413 1 19.2473 5.66329 1.81461 -3.5402 2.75626e-06
414 1 21.7292 2.47091 -3.60789 -3.54024 3.94834e-06
415 1 21.3747 4.24364 -1.80039 -3.54022 2.3495e-06
416 1 21.0205 6.01599 0.00710834 -3.54022 1.98536e-06
417 1 20.6665 7.78792 1.81461 -3.54023 2.89826e-06
418 1 23.1477 4.59661 -3.60789 -3.54023 1.61411e-06
419 1 22.7938 6.36882 -1.80039 -3.54023 1.50573e-06
420 1 22.4402 8.14069 0.00710854 -3.54023 1.62474e-06
421 1 22.0869 9.91212 1.81461 -3.54022 1.69003e-06
422 1 24.5672 6.72184 -3.60789 -3.54023 8.48099e-07
423 1 24.2139 8.49365 -1.80039 -3.54022 6.94224e-07
424 1 23.8607 10.2652 0.00710878 -3.54021 1.10326e-06
425 1 23.5078 12.0365 1.81461 -3.54019 2.68314e-06
426 1 25.9873 8.8469 -3.60789 -3.54021 5.12909e-07
427 1 25.6342 10.6186 -1.80039 -3.5402 1.26353e-06
428 1 25.2811 12.3902 0.00710903 -3.54019 2.53122e-06
429 1 24.9279 14.1618 1.81461 -3.54019 3.54754e-06
430 1 27.4074 10.9723 -3.60789 -3.5402 1.3915e-06
431 1 27.0541 12.7442 -1.80039 -3.5402 2.10505e-06
432 1 26.7006 14.5161 0.00710926 -3.5402 2.43982e-06
433 1 26.3468 16.2882 1.81461 -3.5402 2.38131e-06
434 1 28.8266 13.0984 -3.60789 -3.54021 1.59738e-06
435 1 28.4729 14.8706 -1.80039 -3.54021 1.59488e-06
436 1 28.1189 16.6429 0.00710949 -3.54021 1.46634e-06
437 1 27.7646 18.4153 1.81461 -3.54021 1.28444e-06
438 1 30.245 15.2252 -3.60789 -3.54021 9.74769e-07
439 1 29.8908 16.9976 -1.80039 -3.54021 8.85199e-07
440 1 31.6626 17.3524 -3.60789 -3.54021 5.75148e-07
441 1 7.19175 -17.039 1.81461 -3.53973 0.00155736
442 1 8.97617 -16.6916 0.00710607 -3.53917 0.00107869
443 1 8.63591 -14.9203 1.81461 -3.53965 0.00133434
444 1 11.0977 -18.1067 -3.60789 -3.53959 0.000248269
445 1 10.7525 -16.3377 -1.80039 -3.53962 0.000455818
446 1 10.4044 -14.5644 0.00710616 -3.54026 0.000233159
447 1 10.053 -12.7876 1.81461 -3.54082 8.51301e-05
448 1 12.5253 -15.9816 -3.60789 -3.54006 0.00011113
449 1 12.174 -14.2083 -1.80039 -3.54041 3.71485e-05
450 1 11.822 -12.4337 0.00710661 -3.54056 3.41626e-05
451 1 11.4708 -10.6587 1.81461 -3.54028 1.678e-05
452 1 13.945 -13.8524 -3.60789 -3.54034 1.16938e-05
453 1 13.5927 -12.0789 -1.80039 -3.54029 1.59026e-05
454 1 13.2407 -10.3046 0.00710679 -3.54016 3.11009e-05
455 1 12.888 -8.5292 1.81461 -3.54009 3.71591e-05
456 1 15.3635 -11.7233 -3.60789 -3.54019 1.53955e-05
457 1 15.0102 -9.94913 -1.80039 -3.54018 2.08886e-05
458 1 14.656 -8.17386 0.00710697 -3.54023 1.32048e-05
459 1 14.3008 -6.39784 1.81461 -3.54031 7.68495e-06
460 1 16.7797 -9.59311 -3.60789 -3.54022 8.99707e-06
461 1 16.4248 -7.8183 -1.80039 -3.54027 6.59621e-06
462 1 16.0694 -6.04302 0.00710715 -3.54029 5.3311e-06
463 1 15.7139 -4.26766 1.81461 -3.54023 2.30517e-06
464 1 18.1943 -7.4627 -3.60789 -3.54026 3.93385e-06
465 1 17.8389 -5.68804 -1.80039 -3.54025 3.37293e-06
466 1 17.4833 -3.91315 0.0071074 -3.54021 2.27263e-06
467 1 17.1274 -2.13809 1.81461 -3.5402 2.32839e-06
468 1 19.6089 -5.33291 -3.60789 -3.54023 2.54863e-06
469 1 19.2532 -3.55843 -1.80039 -3.54023 2.84667e-06
470 1 18.8972 -1.78379 0.00710798 -3.54024 4.87409e-06
471 1 18.541 -0.00921801 1.81461 -3.54028 1.06872e-05
472 1 21.0236 -3.20372 -3.60789 -3.54024 3.69263e-06
473 1 20.6678 -1.42961 -1.80039 -3.54026 6.34398e-06
474 1 20.3121 0.344328 0.00710823 -3.54027 8.85581e-06
475 1 19.9568 2.11787 1.81461 -3.54025 8.13184e-06
476 1 22.4392 -1.07556 -3.60789 -3.54026 5.47366e-06
477 1 22.084 0.697821 -1.80039 -3.54025 5.52793e-06
478 1 21.7292 2.47091 0.00710847 -3.54024 3.94834e-06
479 1 21.3747 4.24364 1.81461 -3.54022 2.3495e-06
480 1 23.8564 1.05137 -3.60789 -3.54024 3.22479e-06
481 1 23.5019 2.82411 -1.80039 -3.54023 2.25746e-06
482 1 23.1477 4.59661 0.00710867 -3.54023 1.61411e-06
483 1 22.7938 6.36882 1.81461 -3.54023 1.50573e-06
484 1 25.2748 3.17747 -3.60789 -3.54023 1.43838e-06
485 1 24.9209 4.94976 -1.80039 -3.54023 1.09515e-06
486 1 24.5672 6.72184 0.00710887 -3.54023 8.48099e-07
487 1 24.2139 8.49365 1.81461 -3.54022 6.94224e-07
488 1 26.6941 5.30311 -3.60789 -3.54023 6.17689e-07
489 1 26.3406 7.07508 -1.80039 -3.54022 4.1679e-07
490 1 25.9873 8.8469 0.00710912 -3.54021 5.12909e-07
491 1 25.6342 10.6186 1.81461 -3.5402 1.26353e-06
492 1 28.1139 7.4286 -3.60789 -3.54022 3.24161e-07
493 1 27.7606 9.20047 -1.80039 -3.54021 6.74316e-07
494 1 27.4074 10.9723 0.00710937 -3.5402 1.3915e-06
495 1 27.0541 12.7442 1.81461 -3.5402 2.10505e-06
496 1 29.5336 9.55432 -3.60789 -3.54021 8.46464e-07
497 1 29.1802 11.3263 -1.80039 -3.54021 1.33839e-06
498 1 28.8266 13.0984 0.00710959 -3.54021 1.59738e-06
499 1 28.4729 14.8706 1.81461 -3.54021 1.59488e-06
500 1 30.9527 11.6806 -3.60789 -3.54021 1.12814e-06
501 1 30.599 13.4528 -1.80039 -3.54021 1.08211e-06
502 1 30.245 15.2252 0.00710981 -3.54021 9.74769e-07
503 1 29.8908 16.9976 1.81461 -3.54021 8.85199e-07
504 1 32.3711 13.8073 -3.60789 -3.54021 6.176e-07
505 1 32.017 15.5798 -1.80039 -3.54021 5.88748e-07
506 1 31.6626 17.3524 0.00710997 -3.54021 5.75148e-07
507 1 33.7889 15.9345 -3.60789 -3.54021 4.599e-07
508 1 33.4343 17.7072 -1.80039 -3.54022 4.36861e-07
509 1 35.2061 18.0619 -3.60789 -3.54023 3.07687e-07
510 1 11.0977 -18.1067 0.00710654 -3.53959 0.000248269
511 1 10.7525 -16.3377 1.81461 -3.53962 0.000455818
512 1 12.8748 -17.7525 -1.80039 -3.53986 0.000156826
513 1 12.5253 -15.9816 0.00710669 -3.54006 0.00011113
514 1 12.174 -14.2083 1.81461 -3.54041 3.71485e-05
515 1 14.6492 -17.3966 -3.60789 -3.54008 5.69621e-05
516 1 14.2974 -15.6252 -1.80039 -3.54024 2.3824e-05
517 1 13.945 -13.8524 0.00710684 -3.54034 1.16938e-05
518 1 13.5927 -12.0789 1.81461 -3.54029 1.59026e-05
519 1 16.0696 -15.2688 -3.60789 -3.54025 8.31779e-06
520 1 15.7166 -13.4965 -1.80039 -3.54024 8.30065e-06
521 1 15.3635 -11.7233 0.00710707 -3.54019 1.53955e-05
522 1 15.0102 -9.94913 1.81461 -3.54018 2.08886e-05
523 1 17.4881 -13.1402 -3.60789 -3.5402 7.48363e-06
524 1 17.1341 -11.3671 -1.80039 -3.54019 1.00033e-05
525 1 16.7797 -9.59311 0.0071073 -3.54022 8.99707e-06
526 1 16.4248 -7.8183 1.81461 -3.54027 6.59621e-06
527 1 18.9047 -11.0108 -3.60789 -3.54021 4.53126e-06
528 1 18.5497 -9.23701 -1.80039 -3.54024 3.90401e-06
529 1 18.1943 -7.4627 0.00710754 -3.54026 3.93385e-06
530 1 17.8389 -5.68804 1.81461 -3.54025 3.37293e-06
531 1 20.32 -8.88101 -3.60789 -3.54024 1.92674e-06
532 1 19.9645 -7.10712 -1.80039 -3.54024 2.35428e-06
533 1 19.6089 -5.33291 0.00710809 -3.54023 2.54863e-06
534 1 19.2532 -3.55843 1.81461 -3.54023 2.84667e-06
535 1 21.7351 -6.75159 -3.60789 -3.54023 1.56669e-06
536 1 21.3794 -4.97776 -1.80039 -3.54023 2.28748e-06
537 1 21.0236 -3.20372 0.00710834 -3.54024 3.69263e-06
538 1 20.6678 -1.42961 1.81461 -3.54026 6.34398e-06
539 1 23.1504 -4.62271 -3.60789 -3.54024 2.36807e-06
540 1 22.7947 -2.84912 -1.80039 -3.54025 3.96692e-06
541 1 22.4392 -1.07556 0.00710854 -3.54026 5.47366e-06
542 1 22.084 0.697821 1.81461 -3.54025 5.52793e-06
543 1 24.5664 -2.49468 -3.60789 -3.54025 3.37726e-06
544 1 24.2112 -0.721577 -1.80039 -3.54025 3.78149e-06
545 1 23.8564 1.05137 0.00710878 -3.54024 3.22479e-06
546 1 23.5019 2.82411 1.81461 -3.54023 2.25746e-06
547 1 25.9836 -0.367609 -3.60789 -3.54024 2.39024e-06
548 1 25.6291 1.405 -1.80039 -3.54023 1.93153e-06
549 1 25.2748 3.17747 0.00710903 -3.54023 1.43838e-06
550 1 24.9209 4.94976 1.81461 -3.54023 1.09515e-06
551 1 27.4019 1.75873 -3.60789 -3.54023 1.14436e-06
552 1 27.0479 3.53098 -1.80039 -3.54023 8.65156e-07
553 1 26.6941 5.30311 0.00710926 -3.54023 6.17689e-07
554 1 26.3406 7.07508 1.81461 -3.54022 4.1679e-07
555 1 28.821 3.88464 -3.60789 -3.54023 4.62153e-07
556 1 28.4673 5.65666 -1.80039 -3.54022 3.29809e-07
557 1 28.1139 7.4286 0.00710949 -3.54022 3.24161e-07
558 1 27.7606 9.20047 1.81461 -3.54021 6.74316e-07
559 1 30.2405 6.01043 -3.60789 -3.54022 2.26244e-07
560 1 29.887 7.78237 -1.80039 -3.54021 4.00417e-07
561 1 29.5336 9.55432 0.00710971 -3.54021 8.46464e-07
562 1 29.1802 11.3263 1.81461 -3.54021 1.33839e-06
563 1 31.66 8.13636 -3.60789 -3.54021 5.36346e-07
564 1 31.3064 9.90841 -1.80039 -3.54021 9.41135e-07
565 1 30.9527 11.6806 0.00710989 -3.54021 1.12814e-06
566 1 30.599 13.4528 1.81461 -3.54021 1.08211e-06
567 1 33.079 10.2627 -3.60789 -3.54022 8.95096e-07
568 1 32.7251 12.035 -1.80039 -3.54021 7.60246e-07
569 1 32.3711 13.8073 0.00711003 -3.54021 6.176e-07
570 1 32.017 15.5798 1.81461 -3.54021 5.88748e-07
571 1 34.4973 12.3895 -3.60789 -3.54021 3.25168e-07
572 1 34.1432 14.162 -1.80039 -3.54021 3.3433e-07
573 1 33.7889 15.9345 0.00711015 -3.54021 4.599e-07
574 1 33.4343 17.7072 1.81461 -3.54022 4.36861e-07
575 1 35.9152 14.5166 -3.60789 -3.54021 3.61627e-07
576 1 35.5608 16.2892 -1.80039 -3.54023 5.5591e-07