ITEM: TIMESTEP
0
ITEM: NUMBER OF ATOMS
2504
ITEM: BOX BOUNDS xy xz yz mm pp pp
-5.5498871899999997e+01 5.5498871899999997e+01 0.0000000000000000e+00
-1.8432957300000002e+01 1.8432957300000002e+01 0.0000000000000000e+00
-3.6150000000000002e+00 3.6150000000000002e+00 0.0000000000000000e+00
ITEM: ATOMS id type x y z c_eng c_csym
1 1 0.632248 16.7628 -3.60197 -3.44006 3.55689
2 1 0.290856 -18.2863 -1.79447 -3.28202 9.05344
3 1 0.988191 13.0462 -3.60197 -3.49938 0.312835
4 1 0.854476 14.8024 -1.79447 -3.50391 0.584144
5 1 0.632248 16.7628 0.0130282 -3.44006 3.55689
6 1 0.290856 -18.2863 1.82053 -3.28202 9.05344
7 1 2.57932 15.1781 -3.60197 -3.54076 0.11911
8 1 2.2852 17.0162 -1.79447 -3.52004 0.0828269
9 1 3.97314 17.377 -3.60197 -3.5446 0.0299905
10 1 0.519305 7.4165 -3.60197 -3.51929 1.02058
11 1 0.175071 9.17289 -1.79447 -3.36218 2.86367
12 1 1.81471 9.60861 -3.60197 -3.49959 0.23503
13 1 1.33224 11.3733 -1.79447 -3.50014 0.31754
14 1 0.988191 13.0462 0.0130284 -3.49938 0.312835
15 1 0.854476 14.8024 1.82053 -3.50391 0.584144
16 1 3.19825 11.6979 -3.60197 -3.52482 0.0353921
17 1 2.89369 13.4096 -1.79447 -3.51528 0.0659841
18 1 2.57932 15.1781 0.0130285 -3.54076 0.11911
19 1 2.2852 17.0162 1.82053 -3.52004 0.0828269
20 1 4.68702 13.7854 -3.60197 -3.53337 0.0129542
21 1 4.33876 15.5589 -1.79447 -3.53795 0.0146174
22 1 3.97314 17.377 0.0130285 -3.5446 0.0299905
23 1 6.09346 15.9342 -3.60197 -3.54104 0.00287474
24 1 5.72856 17.7201 -1.79447 -3.54494 0.0141879
25 1 7.51582 18.0592 -3.60197 -3.54152 0.00322459
26 1 1.09752 3.78476 -3.60197 -3.53046 0.128123
27 1 0.831911 5.56334 -1.79447 -3.54075 0.0881333
28 1 0.519305 7.4165 0.0130282 -3.51929 1.02051
29 1 0.175071 9.17289 1.82053 -3.36289 2.86367
30 1 2.57588 5.94471 -3.60197 -3.54159 0.0328216
31 1 2.23854 7.74784 -1.79447 -3.52419 0.0381879
32 1 1.81471 9.60861 0.0130285 -3.49959 0.23503
33 1 1.33224 11.3733 1.82053 -3.50013 0.31754
34 1 3.94773 8.13754 -3.60197 -3.54365 0.0150697
35 1 3.55573 9.93682 -1.79447 -3.54283 0.0471951
36 1 3.19825 11.6979 0.0130286 -3.52482 0.0353921
37 1 2.89369 13.4096 1.82053 -3.51528 0.0659841
38 1 5.34937 10.2696 -3.60197 -3.54193 0.00636628
39 1 5.01964 12.0258 -1.79447 -3.53453 0.0064894
40 1 4.68702 13.7854 0.0130292 -3.53337 0.0129542
41 1 4.33876 15.5589 1.82053 -3.53795 0.0146174
42 1 6.80617 12.3789 -3.60197 -3.53805 0.00275409
43 1 6.45746 14.1515 -1.79447 -3.53811 0.00182084
44 1 6.09346 15.9342 0.0130292 -3.54104 0.00287474
45 1 5.72856 17.7201 1.82053 -3.54494 0.0141879
46 1 8.22484 14.5135 -3.60197 -3.54065 0.00043845
47 1 7.8654 16.289 -1.79447 -3.54155 0.00262135
48 1 7.51582 18.0592 0.0130293 -3.54152 0.00322459
49 1 9.64944 16.637 -3.60197 -3.5408 0.000874041
50 1 9.30829 18.4012 -1.79447 -3.53978 0.000433737
51 1 0.534698 -1.81675 -3.60197 -3.52514 0.822641
52 1 0.198785 -0.0763874 -1.79447 -3.38962 2.18248
53 1 1.90976 0.323736 -3.60197 -3.51914 0.129199
54 1 1.47762 2.07681 -1.79447 -3.51626 0.133089
55 1 1.09752 3.78476 0.0130284 -3.53046 0.128059
56 1 0.831911 5.56334 1.82053 -3.54013 0.0881333
57 1 3.28736 2.44581 -3.60197 -3.53136 0.0116007
58 1 2.93257 4.1823 -1.79447 -3.53103 0.0147061
59 1 2.57588 5.94471 0.0130285 -3.54159 0.0328216
60 1 2.23854 7.74784 1.82053 -3.52429 0.0381879
61 1 4.71068 4.56905 -3.60197 -3.53616 0.00382826
62 1 4.33809 6.33852 -1.79447 -3.53789 0.00547469
63 1 3.94773 8.13754 0.0130285 -3.54365 0.0150697
64 1 3.55573 9.93682 1.82053 -3.54283 0.0471951
65 1 6.09324 6.72385 -3.60197 -3.54088 0.00231326
66 1 5.71007 8.50088 -1.79447 -3.54364 0.00970843
67 1 5.34937 10.2696 0.0130292 -3.54193 0.00636628
68 1 5.01964 12.0258 1.82053 -3.53453 0.0064894
69 1 7.49704 8.85513 -3.60197 -3.54083 0.00202368
70 1 7.1476 10.6152 -1.79447 -3.53903 0.000873532
71 1 6.80617 12.3789 0.0130293 -3.53805 0.00275409
72 1 6.45746 14.1515 1.82053 -3.53811 0.00182084
73 1 8.93432 10.9714 -3.60197 -3.53908 0.000525513
74 1 8.58222 12.7391 -1.79447 -3.53957 0.000501992
75 1 8.22484 14.5135 0.0130293 -3.54065 0.00043845
76 1 7.8654 16.289 1.82053 -3.54155 0.00262135
77 1 10.3575 13.0987 -3.60197 -3.54042 0.000101454
78 1 10.0008 14.8689 -1.79447 -3.54102 0.000659337
79 1 9.64944 16.637 0.0130294 -3.5408 0.000874041
80 1 9.30829 18.4012 1.82053 -3.53978 0.000433737
81 1 11.7832 15.2212 -3.60197 -3.54057 0.000269667
82 1 11.4364 16.9857 -1.79447 -3.54009 0.000141731
83 1 13.2208 17.3376 -3.60197 -3.53985 0.000116656
84 1 1.13849 -5.39866 -3.60197 -3.52361 0.169149
85 1 0.85111 -3.65222 -1.79447 -3.54597 0.0978383
86 1 0.534698 -1.81675 0.0130282 -3.52514 0.822578
87 1 0.198785 -0.0763874 1.82053 -3.38988 2.18248
88 1 2.62228 -3.25277 -3.60197 -3.54372 0.0270886
89 1 2.2867 -1.48672 -1.79447 -3.53332 0.0221544
90 1 1.90976 0.323736 0.0130285 -3.51914 0.129167
91 1 1.47762 2.07681 1.82053 -3.51672 0.133089
92 1 4.03468 -1.09577 -3.60197 -3.54378 0.00382871
93 1 3.65807 0.679909 -1.79447 -3.54135 0.00652842
94 1 3.28736 2.44581 0.0130286 -3.53136 0.0116007
95 1 2.93257 4.1823 1.82053 -3.53113 0.0147061
96 1 5.43213 1.04414 -3.60197 -3.54172 0.00071785
97 1 5.07332 2.80543 -1.79447 -3.53797 0.00141495
98 1 4.71068 4.56905 0.0130292 -3.53616 0.00382826
99 1 4.33809 6.33852 1.82053 -3.53789 0.00547469
100 1 6.84526 3.17489 -3.60197 -3.53932 0.000736803
101 1 6.47511 4.94611 -1.79447 -3.53891 0.000734114
102 1 6.09324 6.72385 0.0130292 -3.54088 0.00231326
103 1 5.71007 8.50088 1.82053 -3.54364 0.00970843
104 1 8.23861 5.31671 -3.60197 -3.54061 0.000622353
105 1 7.86339 7.08905 -1.79447 -3.54129 0.00235828
106 1 7.49704 8.85513 0.0130293 -3.54083 0.00202368
107 1 7.1476 10.6152 1.82053 -3.53903 0.000873532
108 1 9.64373 7.44563 -3.60197 -3.54053 0.000748782
109 1 9.28599 9.20875 -1.79447 -3.53957 0.000183523
110 1 8.93432 10.9714 0.0130294 -3.53908 0.000525513
111 1 8.58222 12.7391 1.82053 -3.53957 0.000501992
112 1 11.0695 9.56445 -3.60197 -3.53957 7.82167e-05
113 1 10.7142 11.3301 -1.79447 -3.53972 8.90832e-05
114 1 10.3575 13.0987 0.0130294 -3.54042 0.000101454
115 1 10.0008 14.8689 1.82053 -3.54102 0.000659337
116 1 12.4923 11.6874 -3.60197 -3.54018 2.48178e-05
117 1 12.1362 13.4548 -1.79447 -3.54054 0.000169927
118 1 11.7832 15.2212 0.0130301 -3.54057 0.000269667
119 1 11.4364 16.9857 1.82053 -3.54009 0.000141731
120 1 13.9174 13.8084 -3.60197 -3.54035 8.62908e-05
121 1 13.5671 15.5732 -1.79447 -3.54016 5.23412e-05
122 1 13.2208 17.3376 0.0130302 -3.53985 0.000116656
123 1 15.3493 15.9264 -3.60197 -3.54 4.31741e-05
124 1 15.0015 17.6921 -1.79447 -3.53989 0.000122413
125 1 16.7789 18.048 -3.60197 -3.54 8.3328e-05
126 1 0.69366 -10.907 -3.60197 -3.4593 3.01575
127 1 0.399625 -9.13251 -1.79447 -3.30148 8.38353
128 1 2.04255 -8.79255 -3.60197 -3.48973 0.382323
129 1 1.5798 -7.037 -1.79447 -3.47974 0.369647
130 1 1.13849 -5.39866 0.0130284 -3.52361 0.169085
131 1 0.85111 -3.65222 1.82053 -3.54541 0.0978383
132 1 3.37771 -6.69776 -3.60197 -3.52679 0.0602186
133 1 3.002 -4.97351 -1.79447 -3.5248 0.0282022
134 1 2.62228 -3.25277 0.0130285 -3.54372 0.0270886
135 1 2.2867 -1.48672 1.82053 -3.53346 0.0221544
136 1 4.78763 -4.60562 -3.60197 -3.53438 0.0120242
137 1 4.41442 -2.85677 -1.79447 -3.53674 0.00435369
138 1 4.03468 -1.09577 0.0130291 -3.54378 0.00382871
139 1 3.65807 0.679909 1.82053 -3.54139 0.00652842
140 1 6.18236 -2.48233 -3.60197 -3.53853 0.00251373
141 1 5.80395 -0.718107 -1.79447 -3.54119 0.00100735
142 1 5.43213 1.04414 0.0130292 -3.54172 0.00071785
143 1 5.07332 2.80543 1.82053 -3.53797 0.00141495
144 1 7.57699 -0.35429 -3.60197 -3.53986 0.000814292
145 1 7.21038 1.40948 -1.79447 -3.53963 0.000292791
146 1 6.84526 3.17489 0.0130293 -3.53932 0.000736803
147 1 6.47511 4.94611 1.82053 -3.53891 0.000734114
148 1 8.98162 1.77318 -3.60197 -3.53935 0.000380826
149 1 8.61255 3.54364 -1.79447 -3.53975 0.000221328
150 1 8.23861 5.31671 0.0130293 -3.54061 0.000622353
151 1 7.86339 7.08905 1.82053 -3.54129 0.00235828
152 1 10.3797 3.90662 -3.60197 -3.54022 0.000308852
153 1 10.0097 5.67808 -1.79447 -3.54073 0.000760303
154 1 9.64373 7.44563 0.0130294 -3.54053 0.000748782
155 1 9.28599 9.20875 1.82053 -3.53957 0.000183523
156 1 11.7859 6.03343 -3.60197 -3.54034 0.000360705
157 1 11.4258 7.79986 -1.79447 -3.53995 0.00012958
158 1 11.0695 9.56445 0.01303 -3.53957 7.82167e-05
159 1 10.7142 11.3301 1.82053 -3.53972 8.90832e-05
160 1 13.2055 8.15368 -3.60197 -3.53986 4.87367e-05
161 1 12.849 9.92036 -1.79447 -3.53988 2.60073e-05
162 1 12.4923 11.6874 0.0130301 -3.54018 2.48178e-05
163 1 12.1362 13.4548 1.82053 -3.54054 0.000169927
164 1 14.6269 10.275 -3.60197 -3.54012 2.81077e-05
165 1 14.2712 12.0422 -1.79447 -3.5403 5.98442e-05
166 1 13.9174 13.8084 0.0130302 -3.54035 8.62908e-05
167 1 13.5671 15.5732 1.82053 -3.54016 5.23412e-05
168 1 16.0507 12.3953 -3.60197 -3.54024 4.07186e-05
169 1 15.6988 14.1612 -1.79447 -3.54016 2.61777e-05
170 1 15.3493 15.9264 0.0130304 -3.54 4.31741e-05
171 1 15.0015 17.6921 1.82053 -3.53989 0.000122413
172 1 17.4787 14.5143 -3.60197 -3.54007 2.41262e-05
173 1 17.1287 16.2808 -1.79447 -3.53999 5.47782e-05
174 1 16.7789 18.048 0.0130305 -3.54 8.3328e-05
175 1 18.9055 16.6359 -3.60197 -3.54005 4.5888e-05
176 1 18.5542 18.4046 -1.79447 -3.54009 4.71971e-05
177 1 1.01076 -14.559 -3.60197 -3.4846 0.462163
178 1 0.895908 -12.8162 -1.79447 -3.52027 0.486146
179 1 0.69366 -10.907 0.0130282 -3.4593 3.01575
180 1 0.399625 -9.13251 1.82053 -3.30077 8.38353
181 1 2.65226 -12.4684 -3.60197 -3.543 0.124618
182 1 2.38641 -10.6639 -1.79447 -3.53001 0.0813922
183 1 2.04255 -8.79255 0.0130285 -3.48973 0.382291
184 1 1.5798 -7.037 1.82053 -3.48032 0.369647
185 1 4.09479 -10.3057 -3.60197 -3.54539 0.0189769
186 1 3.74276 -8.49119 -1.79447 -3.54142 0.0167637
187 1 3.37771 -6.69776 0.0130286 -3.52679 0.0602186
188 1 3.002 -4.97351 1.82053 -3.52489 0.0282022
189 1 5.48979 -8.15882 -3.60197 -3.54398 0.00290347
190 1 5.14501 -6.3752 -1.79447 -3.53886 0.0040149
191 1 4.78763 -4.60562 0.0130292 -3.53438 0.0120242
192 1 4.41442 -2.85677 1.82053 -3.53674 0.00435369
193 1 6.90554 -6.03366 -3.60197 -3.54034 0.000421309
194 1 6.55118 -4.25486 -1.79447 -3.53855 0.00216594
195 1 6.18236 -2.48233 0.0130292 -3.53853 0.00251373
196 1 5.80395 -0.718107 1.82053 -3.54119 0.00100735
197 1 8.3093 -3.90253 -3.60197 -3.54019 0.000239108
198 1 7.94532 -2.12461 -1.79447 -3.53997 0.000880295
199 1 7.57699 -0.35429 0.0130293 -3.53986 0.000814292
200 1 7.21038 1.40948 1.82053 -3.53963 0.000292791
201 1 9.70925 -1.77138 -3.60197 -3.54027 0.000190355
202 1 9.34674 0.00268056 -1.79447 -3.53963 0.000361767
203 1 8.98162 1.77318 0.0130294 -3.53935 0.000380826
204 1 8.61255 3.54364 1.82053 -3.53975 0.000221328
205 1 11.113 0.35817 -3.60197 -3.53982 0.000127726
206 1 10.7484 2.13308 -1.79447 -3.53977 0.000192228
207 1 10.3797 3.90662 0.01303 -3.54022 0.000308852
208 1 10.0097 5.67808 1.82053 -3.54073 0.000760303
209 1 12.5149 2.48927 -3.60197 -3.54018 0.000153661
210 1 12.1498 4.2632 -1.79447 -3.54036 0.000339274
211 1 11.7859 6.03343 0.0130301 -3.54034 0.000360705
212 1 11.4258 7.79986 1.82053 -3.53995 0.00012958
213 1 13.9225 4.61594 -3.60197 -3.54028 0.000182867
214 1 13.563 6.38609 -1.79447 -3.54008 0.000117346
215 1 13.2055 8.15368 0.0130302 -3.53986 4.87367e-05
216 1 12.849 9.92036 1.82053 -3.53988 2.60073e-05
217 1 15.3393 6.73786 -3.60197 -3.54005 4.38023e-05
218 1 14.9831 8.5069 -1.79447 -3.54 3.0972e-05
219 1 14.6269 10.275 0.0130303 -3.54012 2.81077e-05
220 1 14.2712 12.0422 1.82053 -3.5403 5.98442e-05
221 1 16.7595 8.85924 -3.60197 -3.54014 2.58775e-05
222 1 16.4046 10.6279 -1.79447 -3.54022 3.62801e-05
223 1 16.0507 12.3953 0.0130304 -3.54024 4.07186e-05
224 1 15.6988 14.1612 1.82053 -3.54016 2.61777e-05
225 1 18.1821 10.9799 -3.60197 -3.54022 2.39428e-05
226 1 17.8297 12.7476 -1.79447 -3.54016 1.95325e-05
227 1 17.4787 14.5143 0.0130306 -3.54007 2.41262e-05
228 1 17.1287 16.2808 1.82053 -3.53999 5.47782e-05
229 1 19.6075 13.1 -3.60197 -3.54013 1.58062e-05
230 1 19.2565 14.8679 -1.79447 -3.54007 3.00113e-05
231 1 18.9055 16.6359 0.0130308 -3.54005 4.5888e-05
232 1 18.5542 18.4046 1.82053 -3.54009 4.71971e-05
233 1 21.0324 15.222 -3.60197 -3.5401 2.70805e-05
234 1 20.6805 16.9914 -1.79447 -3.54011 3.11516e-05
235 1 22.454 17.3469 -3.60197 -3.54015 1.9605e-05
236 1 1.89568 -17.9352 -3.60197 -3.4543 0.635157
237 1 1.38002 -16.1648 -1.79447 -3.43896 0.690651
238 1 1.01076 -14.559 0.0130284 -3.4846 0.462163
239 1 0.895908 -12.8162 1.82053 -3.52027 0.486146
240 1 3.26301 -15.8846 -3.60197 -3.51759 0.086424
241 1 2.95957 -14.1929 -1.79447 -3.50891 0.0703203
242 1 2.65226 -12.4684 0.0130285 -3.543 0.124618
243 1 2.38641 -10.6639 1.82053 -3.53006 0.0813922
244 1 4.77179 -13.8446 -3.60197 -3.53096 0.0196158
245 1 4.44073 -12.094 -1.79447 -3.53626 0.0166001
246 1 4.09479 -10.3057 0.0130291 -3.54539 0.0189769
247 1 3.74276 -8.49119 1.82053 -3.54146 0.0167637
248 1 6.20191 -11.7253 -3.60197 -3.5387 0.00179075
249 1 5.8433 -9.94528 -1.79447 -3.543 0.00205746
250 1 5.48979 -8.15882 0.0130292 -3.54398 0.00290347
251 1 5.14501 -6.3752 1.82053 -3.53886 0.0040149
252 1 7.60598 -9.59069 -3.60197 -3.54078 0.000201566
253 1 7.25436 -7.81326 -1.79447 -3.54104 0.000293264
254 1 6.90554 -6.03366 0.0130293 -3.54034 0.000421309
255 1 6.55118 -4.25486 1.82053 -3.53855 0.00216594
256 1 9.01967 -7.46181 -3.60197 -3.54002 6.68439e-05
257 1 8.6666 -5.68305 -1.79447 -3.54022 0.000162032
258 1 8.3093 -3.90253 0.0130293 -3.54019 0.000239108
259 1 7.94532 -2.12461 1.82053 -3.53997 0.000880295
260 1 10.4281 -5.32929 -3.60197 -3.54022 3.4439e-05
261 1 10.0699 -3.54954 -1.79447 -3.54049 4.91034e-05
262 1 9.70925 -1.77138 0.0130294 -3.54027 0.000190355
263 1 9.34674 0.00268056 1.82053 -3.53963 0.000361767
264 1 11.8331 -3.19627 -3.60197 -3.54033 1.5124e-05
265 1 11.474 -1.4183 -1.79447 -3.54015 3.72133e-05
266 1 11.113 0.35817 0.01303 -3.53982 0.000127726
267 1 10.7484 2.13308 1.82053 -3.53977 0.000192228
268 1 13.239 -1.06457 -3.60197 -3.54011 1.48874e-05
269 1 12.8782 0.712927 -1.79447 -3.54008 4.88206e-05
270 1 12.5149 2.48927 0.0130301 -3.54018 0.000153661
271 1 12.1498 4.2632 1.82053 -3.54036 0.000339274
272 1 14.6445 1.06661 -3.60197 -3.54026 5.40847e-05
273 1 14.2834 2.84256 -1.79447 -3.54033 0.000136117
274 1 13.9225 4.61594 0.0130302 -3.54028 0.000182867
275 1 13.563 6.38609 1.82053 -3.54008 0.000117346
276 1 16.0541 3.19424 -3.60197 -3.54031 8.06227e-05
277 1 15.6962 4.96716 -1.79447 -3.54019 6.89163e-05
278 1 15.3393 6.73786 0.0130304 -3.54005 4.38023e-05
279 1 14.9831 8.5069 1.82053 -3.54 3.0972e-05
280 1 17.4702 5.31807 -3.60197 -3.54017 2.58845e-05
281 1 17.1147 7.0893 -1.79447 -3.54012 2.1929e-05
282 1 16.7595 8.85924 0.0130305 -3.54014 2.58775e-05
283 1 16.4046 10.6279 1.82053 -3.54022 3.62801e-05
284 1 18.8897 7.44053 -3.60197 -3.54019 1.45291e-05
285 1 18.5356 9.21086 -1.79447 -3.54021 2.05676e-05
286 1 18.1821 10.9799 0.0130307 -3.54022 2.39428e-05
287 1 17.8297 12.7476 1.82053 -3.54016 1.95325e-05
288 1 20.3116 9.56218 -3.60197 -3.54022 1.14588e-05
289 1 19.9592 11.3316 -1.79447 -3.54019 1.1853e-05
290 1 19.6075 13.1 0.0130314 -3.54013 1.58062e-05
291 1 19.2565 14.8679 1.82053 -3.54007 3.00113e-05
292 1 21.7354 11.6836 -3.60197 -3.54017 8.2466e-06
293 1 21.3839 13.4529 -1.79447 -3.54012 1.66961e-05
294 1 21.0324 15.222 0.0130315 -3.5401 2.70805e-05
295 1 20.6805 16.9914 1.82053 -3.54011 3.11516e-05
296 1 23.1588 13.8063 -3.60197 -3.54014 1.51774e-05
297 1 22.8067 15.5765 -1.79447 -3.54014 1.9923e-05
298 1 22.454 17.3469 0.0130317 -3.54015 1.9605e-05
299 1 24.5799 15.9311 -3.60197 -3.54016 1.32558e-05
300 1 24.2266 17.7024 -1.79447 -3.54017 1.20448e-05
301 1 25.9986 18.0579 -3.60197 -3.54019 7.2676e-06
302 1 1.89568 -17.9352 0.0130285 -3.4543 0.635157
303 1 1.38002 -16.1648 1.82053 -3.43896 0.690651
304 1 3.60668 -17.6636 -1.79447 -3.54199 0.0668892
305 1 3.26301 -15.8846 0.0130286 -3.51759 0.086424
306 1 2.95957 -14.1929 1.82053 -3.50891 0.0703203
307 1 5.38881 -17.3644 -3.60197 -3.54409 0.0112563
308 1 5.08247 -15.5993 -1.79447 -3.53541 0.00822323
309 1 4.77179 -13.8446 0.0130292 -3.53096 0.0196158
310 1 4.44073 -12.094 1.82053 -3.53626 0.0166001
311 1 6.86998 -15.2749 -3.60197 -3.53854 0.00422229
312 1 6.54645 -13.5023 -1.79447 -3.53715 0.00555787
313 1 6.20191 -11.7253 0.0130292 -3.5387 0.00179075
314 1 5.8433 -9.94528 1.82053 -3.543 0.00205746
315 1 8.30824 -13.1525 -3.60197 -3.53979 0.00100543
316 1 7.96019 -11.3705 -1.79447 -3.54018 0.00019253
317 1 7.60598 -9.59069 0.0130293 -3.54078 0.000201566
318 1 7.25436 -7.81326 1.82053 -3.54104 0.000293264
319 1 9.72202 -11.019 -3.60197 -3.54051 4.35262e-05
320 1 9.37128 -9.23967 -1.79447 -3.5401 1.15053e-05
321 1 9.01967 -7.46181 0.0130294 -3.54002 6.68439e-05
322 1 8.6666 -5.68305 1.82053 -3.54022 0.000162032
323 1 11.1361 -8.88765 -3.60197 -3.54007 2.98826e-05
324 1 10.7835 -7.10872 -1.79447 -3.53997 4.81419e-05
325 1 10.4281 -5.32929 0.01303 -3.54022 3.4439e-05
326 1 10.0699 -3.54954 1.82053 -3.54049 4.91034e-05
327 1 12.547 -6.7547 -3.60197 -3.54014 2.30834e-05
328 1 12.1909 -4.9753 -1.79447 -3.54025 1.28295e-05
329 1 11.8331 -3.19627 0.0130301 -3.54033 1.5124e-05
330 1 11.474 -1.4183 1.82053 -3.54015 3.72133e-05
331 1 13.9552 -4.62123 -3.60197 -3.54024 8.9663e-06
332 1 13.5977 -2.84267 -1.79447 -3.54019 6.83011e-06
333 1 13.239 -1.06457 0.0130302 -3.54011 1.48874e-05
334 1 12.8782 0.712927 1.82053 -3.54008 4.88206e-05
335 1 15.3632 -2.4887 -3.60197 -3.54018 7.46375e-06
336 1 15.0045 -0.710762 -1.79447 -3.54018 1.57634e-05
337 1 14.6445 1.06661 0.0130303 -3.54026 5.40847e-05
338 1 14.2834 2.84256 1.82053 -3.54033 0.000136117
339 1 16.7715 -0.357317 -3.60197 -3.54026 2.70226e-05
340 1 16.4128 1.41921 -1.79447 -3.54031 5.7267e-05
341 1 16.0541 3.19424 0.0130304 -3.54031 8.06227e-05
342 1 15.6962 4.96716 1.82053 -3.54019 6.89163e-05
343 1 18.1829 1.77116 -3.60197 -3.5403 4.07245e-05
344 1 17.8262 3.54537 -1.79447 -3.54025 3.69783e-05
345 1 17.4702 5.31807 0.0130306 -3.54017 2.58845e-05
346 1 17.1147 7.0893 1.82053 -3.54012 2.1929e-05
347 1 19.599 3.89652 -3.60197 -3.54023 1.70683e-05
348 1 19.2441 5.66906 -1.79447 -3.5402 1.2786e-05
349 1 18.8897 7.44053 0.0130313 -3.54019 1.45291e-05
350 1 18.5356 9.21086 1.82053 -3.54021 2.05676e-05
351 1 21.0182 6.02024 -3.60197 -3.54022 8.21804e-06
352 1 20.6646 7.7917 -1.79447 -3.54023 9.60799e-06
353 1 20.3116 9.56218 0.0130315 -3.54022 1.14588e-05
354 1 19.9592 11.3316 1.82053 -3.54019 1.1853e-05
355 1 22.4395 8.14305 -3.60197 -3.54023 4.88356e-06
356 1 22.0872 9.91367 -1.79447 -3.54021 5.17107e-06
357 1 21.7354 11.6836 0.0130316 -3.54017 8.2466e-06
358 1 21.3839 13.4529 1.82053 -3.54012 1.66961e-05
359 1 23.8623 10.2656 -3.60197 -3.5402 3.54917e-06
360 1 23.5105 12.0361 -1.79447 -3.54017 8.3042e-06
361 1 23.1588 13.8063 0.0130318 -3.54014 1.51774e-05
362 1 22.8067 15.5765 1.82053 -3.54014 1.9923e-05
363 1 25.2848 12.3891 -3.60197 -3.54017 8.07631e-06
364 1 24.9326 14.1601 -1.79447 -3.54016 1.18347e-05
365 1 24.5799 15.9311 0.0130319 -3.54016 1.32558e-05
366 1 24.2266 17.7024 1.82053 -3.54017 1.20448e-05
367 1 26.7055 14.5143 -3.60197 -3.54018 8.38598e-06
368 1 26.3523 16.286 -1.79447 -3.54018 8.36577e-06
369 1 25.9986 18.0579 0.013032 -3.54019 7.2676e-06
370 1 28.1242 16.6409 -3.60197 -3.54019 5.07824e-06
371 1 27.7701 18.4133 -1.79447 -3.5402 4.26197e-06
372 1 3.60668 -17.6636 1.82053 -3.54199 0.0668892
373 1 5.38881 -17.3644 0.0130292 -3.54409 0.0112563
374 1 5.08247 -15.5993 1.82053 -3.53541 0.00822323
375 1 7.18673 -17.0422 -1.79447 -3.54006 0.00197954
376 1 6.86998 -15.2749 0.0130293 -3.53854 0.00422229
377 1 6.54645 -13.5023 1.82053 -3.53715 0.00555787
378 1 8.97609 -16.7007 -3.60197 -3.53918 0.00141505
379 1 8.6456 -14.9308 -1.79447 -3.53937 0.00223504
380 1 8.30824 -13.1525 0.0130293 -3.53979 0.00100543
381 1 7.96019 -11.3705 1.82053 -3.54018 0.00019253
382 1 10.416 -14.5774 -3.60197 -3.53998 0.00072025
383 1 10.0709 -12.7995 -1.79447 -3.54051 0.000228871
384 1 9.72202 -11.019 0.0130294 -3.54051 4.35262e-05
385 1 9.37128 -9.23967 1.82053 -3.5401 1.15053e-05
386 1 11.8367 -12.4447 -3.60197 -3.54048 0.00010067
387 1 11.4869 -10.6665 -1.79447 -3.54038 4.41957e-05
388 1 11.1361 -8.88765 0.01303 -3.54007 2.98826e-05
389 1 10.7835 -7.10872 1.82053 -3.53997 4.81419e-05
390 1 13.2532 -10.3119 -3.60197 -3.54026 5.14558e-05
391 1 12.901 -8.53377 -1.79447 -3.54015 3.94059e-05
392 1 12.547 -6.7547 0.0130301 -3.54014 2.30834e-05
393 1 12.1909 -4.9753 1.82053 -3.54025 1.28295e-05
394 1 14.6664 -8.17843 -3.60197 -3.54022 3.04398e-05
395 1 14.3114 -6.40002 -1.79447 -3.54024 1.63841e-05
396 1 13.9552 -4.62123 0.0130302 -3.54024 8.9663e-06
397 1 13.5977 -2.84267 1.82053 -3.54019 6.83011e-06
398 1 16.0771 -6.04479 -3.60197 -3.54025 1.4185e-05
399 1 15.7206 -4.2668 -1.79447 -3.54022 8.89291e-06
400 1 15.3632 -2.4887 0.0130304 -3.54018 7.46375e-06
401 1 15.0045 -0.710762 1.82053 -3.54018 1.57634e-05
402 1 17.4872 -3.91199 -3.60197 -3.54023 1.01962e-05
403 1 17.1297 -2.13458 -1.79447 -3.54022 1.25571e-05
404 1 16.7715 -0.357317 0.0130305 -3.54026 2.70226e-05
405 1 16.4128 1.41921 1.82053 -3.54031 5.7267e-05
406 1 18.8976 -1.78055 -3.60197 -3.54027 1.87184e-05
407 1 18.5402 -0.0043043 -1.79447 -3.5403 3.09031e-05
408 1 18.1829 1.77116 0.0130307 -3.5403 4.07245e-05
409 1 17.8262 3.54537 1.82053 -3.54025 3.69783e-05
410 1 20.3104 0.34846 -3.60197 -3.54029 2.49554e-05
411 1 19.9544 2.12295 -1.79447 -3.54027 2.35091e-05
412 1 19.599 3.89652 0.0130314 -3.54023 1.70683e-05
413 1 19.2441 5.66906 1.82053 -3.5402 1.2786e-05
414 1 21.7267 2.47488 -3.60197 -3.54025 1.34265e-05
415 1 21.3722 4.24793 -1.79447 -3.54023 9.58314e-06
416 1 21.0182 6.02024 0.0130315 -3.54022 8.21804e-06
417 1 20.6646 7.7917 1.82053 -3.54023 9.60799e-06
418 1 23.1458 4.59964 -3.60197 -3.54024 6.19569e-06
419 1 22.7924 6.37167 -1.79447 -3.54024 5.19278e-06
420 1 22.4395 8.14305 0.0130317 -3.54023 4.88356e-06
421 1 22.0872 9.91367 1.82053 -3.54021 5.17107e-06
422 1 24.5667 6.72347 -3.60197 -3.54024 2.68131e-06
423 1 24.2143 8.49479 -1.79447 -3.54022 2.15868e-06
424 1 23.8623 10.2656 0.0130318 -3.5402 3.54917e-06
425 1 23.5105 12.0361 1.82053 -3.54017 8.3042e-06
426 1 25.9887 8.84705 -3.60197 -3.54021 1.69025e-06
427 1 25.6367 10.6182 -1.79447 -3.54019 4.02829e-06
428 1 25.2848 12.3891 0.013032 -3.54017 8.07631e-06
429 1 24.9326 14.1601 1.82053 -3.54016 1.18347e-05
430 1 27.4105 10.9713 -3.60197 -3.54019 4.48453e-06
431 1 27.0582 12.7427 -1.79447 -3.54018 6.94328e-06
432 1 26.7055 14.5143 0.0130321 -3.54018 8.38598e-06
433 1 26.3523 16.286 1.82053 -3.54018 8.36577e-06
434 1 28.831 13.0967 -3.60197 -3.54019 5.37704e-06
435 1 28.4779 14.8687 -1.79447 -3.54019 5.55265e-06
436 1 28.1242 16.6409 0.0130323 -3.54019 5.07824e-06
437 1 27.7701 18.4133 1.82053 -3.5402 4.26197e-06
438 1 30.2498 15.2234 -3.60197 -3.5402 3.46177e-06
439 1 29.8958 16.9959 -1.79447 -3.5402 3.01023e-06
440 1 31.6672 17.351 -3.60197 -3.54021 1.83142e-06
441 1 7.18673 -17.0422 1.82053 -3.54006 0.00197954
442 1 8.97609 -16.7007 0.0130294 -3.53918 0.00141505
443 1 8.6456 -14.9308 1.82053 -3.53937 0.00223504
444 1 11.0954 -18.1162 -3.60197 -3.53951 0.000369134
445 1 10.7567 -16.3496 -1.79447 -3.53945 0.00085057
446 1 10.416 -14.5774 0.0130294 -3.53998 0.00072025
447 1 10.0709 -12.7995 1.82053 -3.54051 0.000228871
448 1 12.5321 -15.9939 -3.60197 -3.53987 0.000348523
449 1 12.1854 -14.221 -1.79447 -3.54023 0.000205775
450 1 11.8367 -12.4447 0.0130301 -3.54048 0.00010067
451 1 11.4869 -10.6665 1.82053 -3.54038 4.41957e-05
452 1 13.9553 -13.8636 -3.60197 -3.54027 7.41879e-05
453 1 13.6045 -12.0887 -1.79447 -3.54033 5.86809e-05
454 1 13.2532 -10.3119 0.0130302 -3.54026 5.14558e-05
455 1 12.901 -8.53377 1.82053 -3.54015 3.94059e-05
456 1 15.3731 -11.7316 -3.60197 -3.54024 3.77887e-05
457 1 15.0202 -9.95578 -1.79447 -3.54022 3.94867e-05
458 1 14.6664 -8.17843 0.0130303 -3.54022 3.04398e-05
459 1 14.3114 -6.40002 1.82053 -3.54024 1.63841e-05
460 1 16.7878 -9.5988 -3.60197 -3.54023 2.36687e-05
461 1 16.4328 -7.82228 -1.79447 -3.54025 2.01983e-05
462 1 16.0771 -6.04479 0.0130304 -3.54025 1.4185e-05
463 1 15.7206 -4.2668 1.82053 -3.54022 8.89291e-06
464 1 18.2002 -7.46574 -3.60197 -3.54024 1.27853e-05
465 1 17.844 -5.68915 -1.79447 -3.54024 1.16814e-05
466 1 17.4872 -3.91199 0.0130306 -3.54023 1.01962e-05
467 1 17.1297 -2.13458 1.82053 -3.54022 1.25571e-05
468 1 19.6119 -5.33332 -3.60197 -3.54024 9.64844e-06
469 1 19.2549 -3.55703 -1.79447 -3.54025 1.21486e-05
470 1 18.8976 -1.78055 0.0130313 -3.54027 1.87184e-05
471 1 18.5402 -0.0043043 1.82053 -3.5403 3.09031e-05
472 1 21.0239 -3.20216 -3.60197 -3.54027 1.36751e-05
473 1 20.667 -1.4267 -1.79447 -3.54028 2.01167e-05
474 1 20.3104 0.34846 0.0130315 -3.54029 2.49554e-05
475 1 19.9544 2.12295 1.82053 -3.54027 2.35091e-05
476 1 22.4377 -1.07301 -3.60197 -3.54028 1.67153e-05
477 1 22.0819 0.701187 -1.79447 -3.54027 1.68416e-05
478 1 21.7267 2.47488 0.0130316 -3.54025 1.34265e-05
479 1 21.3722 4.24793 1.82053 -3.54023 9.58314e-06
480 1 23.8543 1.05401 -3.60197 -3.54025 1.07337e-05
481 1 23.4997 2.82705 -1.79447 -3.54024 8.27844e-06
482 1 23.1458 4.59964 0.0130318 -3.54024 6.19569e-06
483 1 22.7924 6.37167 1.82053 -3.54024 5.19278e-06
484 1 25.2732 3.17949 -3.60197 -3.54024 5.20582e-06
485 1 24.9197 4.95168 -1.79447 -3.54024 3.81294e-06
486 1 24.5667 6.72347 0.0130319 -3.54024 2.68131e-06
487 1 24.2143 8.49479 1.82053 -3.54022 2.15868e-06
488 1 26.6937 5.30409 -3.60197 -3.54023 2.02978e-06
489 1 26.341 7.07571 -1.79447 -3.54023 1.33009e-06
490 1 25.9887 8.84705 0.013032 -3.54021 1.69025e-06
491 1 25.6367 10.6182 1.82053 -3.54019 4.02829e-06
492 1 28.1151 7.42844 -3.60197 -3.54021 1.0919e-06
493 1 27.7627 9.19988 -1.79447 -3.5402 2.22031e-06
494 1 27.4105 10.9713 0.0130322 -3.54019 4.48453e-06
495 1 27.0582 12.7427 1.82053 -3.54018 6.94328e-06
496 1 29.5363 9.55323 -3.60197 -3.5402 2.74825e-06
497 1 29.1838 11.3249 -1.79447 -3.5402 4.34118e-06
498 1 28.831 13.0967 0.0130323 -3.54019 5.37704e-06
499 1 28.4779 14.8687 1.82053 -3.54019 5.55265e-06
500 1 30.9565 11.6789 -3.60197 -3.5402 3.67867e-06
501 1 30.6033 13.4511 -1.79447 -3.5402 3.76157e-06
502 1 30.2498 15.2234 0.0130325 -3.5402 3.46177e-06
503 1 29.8958 16.9959 1.82053 -3.5402 3.01023e-06
504 1 32.3754 13.8057 -3.60197 -3.5402 2.33995e-06
505 1 32.0215 15.5782 -1.79447 -3.54021 2.10632e-06
506 1 31.6672 17.351 0.0130326 -3.54021 1.83142e-06
507 1 33.793 15.9331 -3.60197 -3.54021 1.44535e-06
508 1 33.4384 17.706 -1.79447 -3.54022 1.19406e-06
509 1 35.2097 18.061 -3.60197 -3.54023 7.13408e-07
510 1 11.0954 -18.1162 0.01303 -3.53951 0.000369134
511 1 10.7567 -16.3496 1.82053 -3.53945 0.00085057
512 1 12.8767 -17.7627 -1.79447 -3.5397 0.000311614
513 1 12.5321 -15.9939 0.0130301 -3.53987 0.000348523
514 1 12.1854 -14.221 1.82053 -3.54023 0.000205775
515 1 14.6539 -17.4064 -3.60197 -3.53994 0.000168178
516 1 14.3052 -15.6364 -1.79447 -3.5401 0.000125695
517 1 13.9553 -13.8636 0.0130302 -3.54027 7.41879e-05
518 1 13.6045 -12.0887 1.82053 -3.54033 5.86809e-05
519 1 16.0775 -15.2784 -3.60197 -3.54018 5.00352e-05
520 1 15.7256 -13.5059 -1.79447 -3.54024 3.67181e-05
521 1 15.3731 -11.7316 0.0130304 -3.54024 3.77887e-05
522 1 15.0202 -9.95578 1.82053 -3.54022 3.94867e-05
523 1 17.496 -13.1479 -3.60197 -3.54021 2.11426e-05
524 1 17.1422 -11.374 -1.79447 -3.54021 2.29021e-05
525 1 16.7878 -9.5988 0.0130305 -3.54023 2.36687e-05
526 1 16.4328 -7.82228 1.82053 -3.54025 2.01983e-05
527 1 18.9115 -11.0163 -3.60197 -3.54021 1.22021e-05
528 1 18.5561 -9.24152 -1.79447 -3.54023 1.2738e-05
529 1 18.2002 -7.46574 0.0130307 -3.54024 1.27853e-05
530 1 17.844 -5.68915 1.82053 -3.54024 1.16814e-05
531 1 20.3249 -8.88426 -3.60197 -3.54023 6.61057e-06
532 1 19.9685 -7.10912 -1.79447 -3.54024 8.07672e-06
533 1 19.6119 -5.33332 0.0130314 -3.54024 9.64844e-06
534 1 19.2549 -3.55703 1.82053 -3.54025 1.21486e-05
535 1 21.7376 -6.75264 -3.60197 -3.54024 5.6553e-06
536 1 21.3808 -4.97756 -1.79447 -3.54025 8.83723e-06
537 1 21.0239 -3.20216 0.0130315 -3.54027 1.36751e-05
538 1 20.667 -1.4267 1.82053 -3.54028 2.01167e-05
539 1 23.1507 -4.62205 -3.60197 -3.54025 8.58765e-06
540 1 22.794 -2.8475 -1.79447 -3.54027 1.31381e-05
541 1 22.4377 -1.07301 0.0130317 -3.54028 1.67153e-05
542 1 22.0819 0.701187 1.82053 -3.54027 1.68416e-05
543 1 24.5652 -2.49307 -3.60197 -3.54026 1.07827e-05
544 1 24.2095 -0.719401 -1.79447 -3.54026 1.19316e-05
545 1 23.8543 1.05401 0.0130318 -3.54025 1.07337e-05
546 1 23.4997 2.82705 1.82053 -3.54024 8.27844e-06
547 1 25.9819 -0.365825 -3.60197 -3.54025 7.88815e-06
548 1 25.6272 1.40697 -1.79447 -3.54024 6.74052e-06
549 1 25.2732 3.17949 0.013032 -3.54024 5.20582e-06
550 1 24.9197 4.95168 1.82053 -3.54024 3.81294e-06
551 1 27.4006 1.76009 -3.60197 -3.54024 4.03679e-06
552 1 27.0469 3.53221 -1.79447 -3.54024 3.01487e-06
553 1 26.6937 5.30409 0.0130321 -3.54023 2.02978e-06
554 1 26.341 7.07571 1.82053 -3.54023 1.33009e-06
555 1 28.8207 3.8852 -3.60197 -3.54023 1.54993e-06
556 1 28.4677 5.65689 -1.79447 -3.54022 1.06502e-06
557 1 28.1151 7.42844 0.0130323 -3.54021 1.0919e-06
558 1 27.7627 9.19988 1.82053 -3.5402 2.22031e-06
559 1 30.2415 6.01008 -3.60197 -3.54021 7.68579e-07
560 1 29.8889 7.78165 -1.79447 -3.54021 1.3748e-06
561 1 29.5363 9.55323 0.0130324 -3.5402 2.74825e-06
562 1 29.1838 11.3249 1.82053 -3.5402 4.34118e-06
563 1 31.6623 8.13527 -3.60197 -3.54021 1.75284e-06
564 1 31.3095 9.90702 -1.79447 -3.54021 2.94643e-06
565 1 30.9565 11.6789 0.0130325 -3.5402 3.67867e-06
566 1 30.6033 13.4511 1.82053 -3.5402 3.76157e-06
567 1 33.0823 10.2612 -3.60197 -3.54021 2.72319e-06
568 1 32.729 12.0333 -1.79447 -3.54021 2.63726e-06
569 1 32.3754 13.8057 0.0130326 -3.5402 2.33995e-06
570 1 32.0215 15.5782 1.82053 -3.54021 2.10632e-06
571 1 34.5011 12.3879 -3.60197 -3.5402 1.45844e-06
572 1 34.1472 14.1604 -1.79447 -3.5402 1.3795e-06
573 1 33.793 15.9331 0.0130327 -3.54021 1.44535e-06
574 1 33.4384 17.706 1.82053 -3.54022 1.19406e-06
575 1 35.919 14.5152 -3.60197 -3.54021 1.13119e-06
576 1 35.5645 16.288 -1.79447 -3.54022 1.29247e-06
577 1 35.2097 18.061 0.0130327 -3.54023 7.13408e-07
578 1 37.336 16.6429 -3.60197 -3.54024 1.19933e-06
579 1 36.981 18.416 -1.79447 -3.54023 1.40073e-07