ITEM: TIMESTEP
0
ITEM: NUMBER OF ATOMS
2504
ITEM: BOX BOUNDS xy xz yz mm pp pp
-5.5498871899999997e+01 5.5498871899999997e+01 0.0000000000000000e+00
-1.8432957300000002e+01 1.8432957300000002e+01 0.0000000000000000e+00
-3.6150000000000002e+00 3.6150000000000002e+00 0.0000000000000000e+00
ITEM: ATOMS id type x y z c_eng c_csym
1 1 0.637372 16.7213 -3.61145 -3.44448 3.68984
2 1 0.2857 -18.3347 -1.80395 -3.28801 9.18788
3 1 1.01724 13.016 -3.61145 -3.48312 0.436801
4 1 0.886295 14.7642 -1.80395 -3.50369 0.594084
5 1 0.637372 16.7213 0.00355084 -3.44448 3.68984
6 1 0.2857 -18.3347 1.81105 -3.28801 9.18788
7 1 2.60572 15.1628 -3.61145 -3.5422 0.12244
8 1 2.29612 16.9912 -1.80395 -3.52348 0.0745008
9 1 3.99013 17.3643 -3.61145 -3.5463 0.0282318
10 1 0.606569 7.46937 -3.61145 -3.47511 2.82648
11 1 0.254122 9.26284 -1.80395 -3.29927 7.24075
12 1 1.87708 9.64722 -3.61145 -3.47034 0.542097
13 1 1.38086 11.4002 -1.80395 -3.45247 0.59849
14 1 1.01724 13.016 0.00355113 -3.48312 0.436801
15 1 0.886295 14.7642 1.81105 -3.50369 0.594084
16 1 3.25479 11.7138 -3.61145 -3.51934 0.0592118
17 1 2.94271 13.4123 -1.80395 -3.50981 0.087271
18 1 2.60572 15.1628 0.00355126 -3.5422 0.12244
19 1 2.29612 16.9912 1.81105 -3.52348 0.0745008
20 1 4.73059 13.7938 -3.61145 -3.53239 0.0164839
21 1 4.36834 15.5599 -1.80395 -3.53826 0.00990627
22 1 3.99013 17.3643 0.0035514 -3.5463 0.0282318
23 1 6.12294 15.9398 -3.61145 -3.54068 0.00230477
24 1 5.74981 17.7186 -1.80395 -3.54461 0.0105302
25 1 7.53472 18.0656 -3.61145 -3.54093 0.00166734
26 1 1.04706 3.78723 -3.61145 -3.49375 0.376567
27 1 0.880141 5.54155 -1.80395 -3.51685 0.412015
28 1 0.606569 7.46937 0.00355084 -3.47511 2.82648
29 1 0.254122 9.26284 1.81105 -3.29939 7.24075
30 1 2.60478 5.94171 -3.61145 -3.54242 0.0931463
31 1 2.2834 7.76061 -1.80395 -3.52412 0.0586114
32 1 1.87708 9.64722 0.0035513 -3.47034 0.542097
33 1 1.38086 11.4002 1.81105 -3.45247 0.59849
34 1 3.9832 8.1416 -3.61145 -3.54605 0.0235091
35 1 3.60464 9.94796 -1.80395 -3.54354 0.0505683
36 1 3.25479 11.7138 0.00355145 -3.51934 0.0592118
37 1 2.94271 13.4123 1.81105 -3.50981 0.087271
38 1 5.39104 10.2716 -3.61145 -3.54303 0.00577858
39 1 5.0672 12.0321 -1.80395 -3.5346 0.00941738
40 1 4.73059 13.7938 0.00355171 -3.53239 0.0164839
41 1 4.36834 15.5599 1.81105 -3.53826 0.00990627
42 1 6.84424 12.3821 -3.61145 -3.53851 0.00335455
43 1 6.49317 14.1583 -1.80395 -3.53823 0.00203449
44 1 6.12294 15.9398 0.00355177 -3.54068 0.00230477
45 1 5.74981 17.7186 1.81105 -3.54461 0.0105302
46 1 8.25383 14.5189 -3.61145 -3.54081 0.000381928
47 1 7.89086 16.2961 -1.80395 -3.54131 0.00199186
48 1 7.53472 18.0656 0.00355192 -3.54093 0.00166734
49 1 9.66827 16.6457 -3.61145 -3.54071 0.000476198
50 1 9.32013 18.413 -1.80395 -3.53957 0.000193694
51 1 0.610767 -1.75169 -3.61145 -3.4787 2.73294
52 1 0.26059 0.0374107 -1.80395 -3.3044 7.09903
53 1 1.903 0.412087 -3.61145 -3.47826 0.496493
54 1 1.42051 2.16188 -1.80395 -3.45858 0.535439
55 1 1.04706 3.78723 0.00355113 -3.49375 0.376562
56 1 0.880141 5.54155 1.81105 -3.5167 0.412015
57 1 3.2791 2.48764 -3.61145 -3.52151 0.0501771
58 1 2.95332 4.1929 -1.80395 -3.51493 0.067643
59 1 2.60478 5.94171 0.00355126 -3.54242 0.0931463
60 1 2.2834 7.76061 1.81105 -3.52414 0.0586114
61 1 4.73705 4.57735 -3.61145 -3.53307 0.0134842
62 1 4.36816 6.34233 -1.80395 -3.5382 0.00768058
63 1 3.9832 8.1416 0.0035514 -3.54605 0.0235091
64 1 3.60464 9.94796 1.81105 -3.54354 0.0505683
65 1 6.12288 6.725 -3.61145 -3.54062 0.00234528
66 1 5.74476 8.50137 -1.80395 -3.54423 0.00943899
67 1 5.39104 10.2716 0.00355176 -3.54303 0.00577858
68 1 5.0672 12.0321 1.81105 -3.5346 0.00941738
69 1 7.5296 8.85245 -3.61145 -3.54074 0.00147397
70 1 7.1841 10.6144 -1.80395 -3.53925 0.00123783
71 1 6.84424 12.3821 0.00355192 -3.53851 0.00335455
72 1 6.49317 14.1583 1.81105 -3.53823 0.00203449
73 1 8.96483 10.9695 -3.61145 -3.53912 0.000751142
74 1 8.61281 12.7411 -1.80395 -3.53983 0.000599511
75 1 8.25383 14.5189 0.00355198 -3.54081 0.000381928
76 1 7.89086 16.2961 1.81105 -3.54131 0.00199186
77 1 10.3815 13.1 -3.61145 -3.5405 7.31778e-05
78 1 10.0232 14.8741 -1.80395 -3.54108 0.000444427
79 1 9.66827 16.6457 0.00355213 -3.54071 0.000476198
80 1 9.32013 18.413 1.81105 -3.53957 0.000193694
81 1 11.7987 15.2269 -3.61145 -3.54059 0.000137147
82 1 11.4474 16.9962 -1.80395 -3.54012 4.65098e-05
83 1 13.2244 17.3492 -3.61145 -3.53998 4.73961e-05
84 1 1.05823 -5.42024 -3.61145 -3.49041 0.390854
85 1 0.885377 -3.67468 -1.80395 -3.5191 0.411032
86 1 0.610767 -1.75169 0.00355084 -3.4787 2.73293
87 1 0.26059 0.0374107 1.81105 -3.30452 7.09904
88 1 2.61744 -3.26959 -3.61145 -3.54351 0.0894507
89 1 2.29653 -1.4608 -1.80395 -3.52764 0.054451
90 1 1.903 0.412087 0.0035513 -3.47826 0.49649
91 1 1.42051 2.16188 1.81105 -3.45877 0.535439
92 1 4.00691 -1.07947 -3.61145 -3.54652 0.0183791
93 1 3.63255 0.720457 -1.80395 -3.54321 0.0354341
94 1 3.2791 2.48764 0.00355145 -3.52151 0.0501771
95 1 2.95332 4.1929 1.81105 -3.51495 0.067643
96 1 5.41361 1.05269 -3.61145 -3.54294 0.00379957
97 1 5.08184 2.81452 -1.80395 -3.53546 0.0073649
98 1 4.73705 4.57735 0.00355171 -3.53307 0.0134842
99 1 4.36816 6.34233 1.81105 -3.5382 0.00768058
100 1 6.8549 3.16897 -3.61145 -3.53884 0.00256677
101 1 6.49799 4.94488 -1.80395 -3.53844 0.00172865
102 1 6.12288 6.725 0.00355177 -3.54062 0.00234528
103 1 5.74476 8.50137 1.81105 -3.54423 0.00943899
104 1 8.25758 5.3078 -3.61145 -3.5408 0.000424439
105 1 7.89031 7.08414 -1.80395 -3.54124 0.00198652
106 1 7.5296 8.85245 0.00355192 -3.54074 0.00147397
107 1 7.1841 10.6144 1.81105 -3.53925 0.00123783
108 1 9.66671 7.43609 -3.61145 -3.54063 0.000462084
109 1 9.31404 9.20309 -1.80395 -3.53951 0.000169138
110 1 8.96483 10.9695 0.00355208 -3.53912 0.000751142
111 1 8.61281 12.7411 1.81105 -3.53983 0.000599511
112 1 11.092 9.55695 -3.61145 -3.53962 0.000135371
113 1 10.7384 11.3272 -1.80395 -3.53976 0.000150518
114 1 10.3815 13.1 0.0035522 -3.5405 7.31778e-05
115 1 10.0232 14.8741 1.81105 -3.54108 0.000444427
116 1 12.5104 11.6839 -3.61145 -3.54024 1.15246e-05
117 1 12.1538 13.4559 -1.80395 -3.54057 9.40885e-05
118 1 11.7987 15.2269 0.00355253 -3.54059 0.000137147
119 1 11.4474 16.9962 1.81105 -3.54012 4.65098e-05
120 1 13.9285 13.8099 -3.61145 -3.54038 3.81167e-05
121 1 13.5755 15.5798 -1.80395 -3.54021 1.53069e-05
122 1 13.2244 17.3492 0.00355275 -3.53998 4.73961e-05
123 1 15.3513 15.9335 -3.61145 -3.54009 1.19482e-05
124 1 14.9991 17.7039 -1.80395 -3.54006 3.02575e-05
125 1 16.7725 18.059 -3.61145 -3.54016 9.64199e-06
126 1 0.654121 -10.9337 -3.61145 -3.44996 3.52988
127 1 0.315364 -9.13533 -1.80395 -3.29383 8.93735
128 1 1.93922 -8.77707 -3.61145 -3.46847 0.595218
129 1 1.44838 -7.0266 -1.80395 -3.44486 0.626867
130 1 1.05823 -5.42024 0.00355113 -3.49041 0.390849
131 1 0.885377 -3.67468 1.81105 -3.51896 0.411032
132 1 3.30374 -6.70896 -3.61145 -3.5205 0.0670804
133 1 2.97225 -5.00704 -1.80395 -3.51331 0.0690453
134 1 2.61744 -3.26959 0.00355126 -3.54351 0.0894507
135 1 2.29653 -1.4608 1.81105 -3.52767 0.054451
136 1 4.75803 -4.62772 -3.61145 -3.53267 0.0152182
137 1 4.38897 -2.86837 -1.80395 -3.53807 0.00627212
138 1 4.00691 -1.07947 0.00355156 -3.54652 0.0183791
139 1 3.63255 0.720457 1.81105 -3.54322 0.0354341
140 1 6.14719 -2.48867 -3.61145 -3.54 0.00187809
141 1 5.77036 -0.715788 -1.80395 -3.54361 0.00583636
142 1 5.41361 1.05269 0.00355176 -3.54294 0.00379957
143 1 5.08184 2.81452 1.81105 -3.53546 0.0073649
144 1 7.5514 -0.362103 -3.61145 -3.54049 0.000909538
145 1 7.20122 1.40089 -1.80395 -3.53942 0.000874363
146 1 6.8549 3.16897 0.00355192 -3.53884 0.00256677
147 1 6.49799 4.94488 1.81105 -3.53844 0.00172865
148 1 8.97773 1.75801 -3.61145 -3.5392 0.000584612
149 1 8.62108 3.5303 -1.80395 -3.53988 0.000422859
150 1 8.25758 5.3078 0.00355198 -3.5408 0.000424439
151 1 7.89031 7.08414 1.81105 -3.54124 0.00198652
152 1 10.3876 3.89021 -3.61145 -3.54045 8.15378e-05
153 1 10.0257 5.6646 -1.80395 -3.541 0.000454104
154 1 9.66671 7.43609 0.00355213 -3.54063 0.000462084
155 1 9.31404 9.20309 1.81105 -3.53951 0.000169138
156 1 11.7994 6.01827 -3.61145 -3.54052 0.0001444
157 1 11.4445 7.78806 -1.80395 -3.54008 3.76959e-05
158 1 11.092 9.55695 0.00355244 -3.53962 0.000135371
159 1 10.7384 11.3272 1.81105 -3.53976 0.000150518
160 1 13.2203 8.14163 -3.61145 -3.53997 2.13931e-05
161 1 12.8661 9.91228 -1.80395 -3.53997 3.44586e-05
162 1 12.5104 11.6839 0.00355262 -3.54024 1.15246e-05
163 1 12.1538 13.4559 1.81105 -3.54057 9.40885e-05
164 1 14.639 10.2674 -3.61145 -3.5402 2.84112e-06
165 1 14.2835 12.039 -1.80395 -3.54036 2.10731e-05
166 1 13.9285 13.8099 0.00355281 -3.54038 3.81167e-05
167 1 13.5755 15.5798 1.81105 -3.54021 1.53069e-05
168 1 16.0576 12.3929 -3.61145 -3.5403 1.14653e-05
169 1 15.7039 14.1634 -1.80395 -3.54022 5.91999e-06
170 1 15.3513 15.9335 0.00355308 -3.54009 1.19482e-05
171 1 14.9991 17.7039 1.81105 -3.54006 3.02575e-05
172 1 17.4786 14.5173 -3.61145 -3.54016 3.89808e-06
173 1 17.1256 16.288 -1.80395 -3.54012 1.03617e-05
174 1 16.7725 18.059 0.00355337 -3.54016 9.64199e-06
175 1 18.8991 16.6427 -3.61145 -3.54017 4.93436e-06
176 1 18.5453 18.4142 -1.80395 -3.54021 2.4658e-06
177 1 1.0234 -14.6214 -3.61145 -3.47844 0.491448
178 1 0.897595 -12.8768 -1.80395 -3.50863 0.56497
179 1 0.654121 -10.9337 0.00355084 -3.44996 3.52988
180 1 0.315364 -9.13533 1.81105 -3.29384 8.93735
181 1 2.62561 -12.4858 -3.61145 -3.54298 0.123583
182 1 2.32373 -10.6666 -1.80395 -3.52633 0.0726992
183 1 1.93922 -8.77707 0.0035513 -3.46847 0.595216
184 1 1.44838 -7.0266 1.81105 -3.44505 0.626867
185 1 4.02331 -10.2942 -3.61145 -3.54671 0.0227998
186 1 3.65565 -8.48364 -1.80395 -3.54346 0.0394827
187 1 3.30374 -6.70896 0.00355145 -3.5205 0.0670804
188 1 2.97225 -5.00704 1.81105 -3.51333 0.0690453
189 1 5.42933 -8.16011 -3.61145 -3.54376 0.0046161
190 1 5.10139 -6.39219 -1.80395 -3.53594 0.00765768
191 1 4.75803 -4.62772 0.00355171 -3.53267 0.0152182
192 1 4.38897 -2.86837 1.81105 -3.53807 0.00627212
193 1 6.87134 -6.04535 -3.61145 -3.53913 0.0023356
194 1 6.51873 -4.26737 -1.80395 -3.53834 0.00208324
195 1 6.14719 -2.48867 0.00355177 -3.54 0.00187809
196 1 5.77036 -0.715788 1.81105 -3.54361 0.00583636
197 1 8.27686 -3.90944 -3.61145 -3.54067 0.000272885
198 1 7.91266 -2.13157 -1.80395 -3.54089 0.00133395
199 1 7.5514 -0.362103 0.00355192 -3.54049 0.000909538
200 1 7.20122 1.40089 1.81105 -3.53942 0.000874363
201 1 9.68458 -1.78054 -3.61145 -3.54058 0.000265269
202 1 9.33061 -0.0105443 -1.80395 -3.53954 0.000171052
203 1 8.97773 1.75801 0.00355208 -3.5392 0.000584612
204 1 8.62108 3.5303 1.81105 -3.53988 0.000422859
205 1 11.1039 0.343255 -3.61145 -3.5397 0.000121952
206 1 10.7477 2.11599 -1.80395 -3.53978 0.000123712
207 1 10.3876 3.89021 0.00355235 -3.54045 8.15378e-05
208 1 10.0257 5.6646 1.81105 -3.541 0.000454104
209 1 12.5166 2.47244 -3.61145 -3.54024 2.42964e-05
210 1 12.1575 4.24623 -1.80395 -3.54051 0.000116377
211 1 11.7994 6.01827 0.00355253 -3.54052 0.0001444
212 1 11.4445 7.78806 1.81105 -3.54008 3.76959e-05
213 1 13.9299 4.59995 -3.61145 -3.54036 5.13708e-05
214 1 13.5744 6.37128 -1.80395 -3.54018 1.84453e-05
215 1 13.2203 8.14163 0.00355275 -3.53997 2.13931e-05
216 1 12.8661 9.91228 1.81105 -3.53997 3.44586e-05
217 1 15.3486 6.72463 -3.61145 -3.5401 4.59857e-06
218 1 14.9941 8.49592 -1.80395 -3.54008 7.28207e-06
219 1 14.639 10.2674 0.00355296 -3.5402 2.84112e-06
220 1 14.2835 12.039 1.81105 -3.54036 2.10731e-05
221 1 16.7672 8.85011 -3.61145 -3.54019 1.3901e-06
222 1 16.4122 10.6218 -1.80395 -3.54027 5.78973e-06
223 1 16.0576 12.3929 0.00355318 -3.5403 1.14653e-05
224 1 15.7039 14.1634 1.81105 -3.54022 5.91999e-06
225 1 18.1859 10.9755 -3.61145 -3.54026 3.98807e-06
226 1 17.8319 12.7466 -1.80395 -3.54022 2.7784e-06
227 1 17.4786 14.5173 0.00355349 -3.54016 3.89808e-06
228 1 17.1256 16.288 1.81105 -3.54012 1.03617e-05
229 1 19.6059 13.1004 -3.61145 -3.54019 1.71271e-06
230 1 19.2525 14.8715 -1.80395 -3.54016 4.11845e-06
231 1 18.8991 16.6427 0.00355382 -3.54017 4.93436e-06
232 1 18.5453 18.4142 1.81105 -3.54021 2.4658e-06
233 1 21.0258 15.2259 -3.61145 -3.54018 2.64616e-06
234 1 20.672 16.9975 -1.80395 -3.5402 2.04928e-06
235 1 22.4446 17.3523 -3.61145 -3.54021 1.07351e-06
236 1 1.89917 -17.9734 -3.61145 -3.45815 0.680581
237 1 1.39389 -16.2189 -1.80395 -3.43202 0.736184
238 1 1.0234 -14.6214 0.00355113 -3.47844 0.491448
239 1 0.897595 -12.8768 1.81105 -3.50863 0.56497
240 1 3.27245 -15.9174 -3.61145 -3.51757 0.0751703
241 1 2.96068 -14.2243 -1.80395 -3.50832 0.0897136
242 1 2.62561 -12.4858 0.00355126 -3.54298 0.123583
243 1 2.32373 -10.6666 1.81105 -3.52634 0.0726992
244 1 4.75371 -13.8503 -3.61145 -3.53173 0.0188025
245 1 4.39615 -12.0905 -1.80395 -3.53787 0.0100151
246 1 4.02331 -10.2942 0.00355156 -3.54671 0.0227998
247 1 3.65565 -8.48364 1.81105 -3.54347 0.0394827
248 1 6.15252 -11.7124 -3.61145 -3.54011 0.00137947
249 1 5.7811 -9.93518 -1.80395 -3.5442 0.00640613
250 1 5.42933 -8.16011 0.00355176 -3.54376 0.0046161
251 1 5.10139 -6.39219 1.81105 -3.53594 0.00765768
252 1 7.55931 -9.58402 -3.61145 -3.5408 0.000868771
253 1 7.21321 -7.81729 -1.80395 -3.53985 0.000911325
254 1 6.87134 -6.04535 0.00355192 -3.53913 0.0023356
255 1 6.51873 -4.26737 1.81105 -3.53834 0.00208324
256 1 8.98811 -7.46352 -3.61145 -3.53938 0.000545329
257 1 8.63582 -5.68896 -1.80395 -3.53999 0.000470879
258 1 8.27686 -3.90944 0.00355198 -3.54067 0.000272885
259 1 7.91266 -2.13157 1.81105 -3.54089 0.00133395
260 1 10.4008 -5.33157 -3.61145 -3.54044 4.81942e-05
261 1 10.0421 -3.55492 -1.80395 -3.54093 0.000230963
262 1 9.68458 -1.78054 0.00355213 -3.54058 0.000265269
263 1 9.33061 -0.0105443 1.81105 -3.53954 0.000171052
264 1 11.8123 -3.20182 -3.61145 -3.54052 5.94862e-05
265 1 11.4577 -1.42887 -1.80395 -3.54014 1.81074e-05
266 1 11.1039 0.343255 0.00355244 -3.5397 0.000121952
267 1 10.7477 2.11599 1.81105 -3.53978 0.000123712
268 1 13.2294 -1.07533 -3.61145 -3.54005 1.72715e-05
269 1 12.874 0.698268 -1.80395 -3.54003 2.80228e-05
270 1 12.5166 2.47244 0.00355262 -3.54024 2.42964e-05
271 1 12.1575 4.24623 1.81105 -3.54051 0.000116377
272 1 14.6438 1.05315 -3.61145 -3.54024 5.47843e-06
273 1 14.2868 2.82707 -1.80395 -3.54036 3.25741e-05
274 1 13.9299 4.59995 0.00355281 -3.54036 5.13708e-05
275 1 13.5744 6.37128 1.81105 -3.54018 1.84453e-05
276 1 16.0585 3.18068 -3.61145 -3.54032 1.78465e-05
277 1 15.7032 4.95307 -1.80395 -3.54023 1.00365e-05
278 1 15.3486 6.72463 0.00355308 -3.5401 4.59857e-06
279 1 14.9941 8.49592 1.81105 -3.54008 7.28207e-06
280 1 17.4763 5.30633 -3.61145 -3.54018 1.54075e-06
281 1 17.1218 7.07829 -1.80395 -3.54015 1.58119e-06
282 1 16.7672 8.85011 0.00355337 -3.54019 1.3901e-06
283 1 16.4122 10.6218 1.81105 -3.54027 5.78973e-06
284 1 18.8948 7.432 -3.61145 -3.5402 5.83452e-07
285 1 18.5402 9.20395 -1.80395 -3.54024 2.08517e-06
286 1 18.1859 10.9755 0.00355366 -3.54026 3.98807e-06
287 1 17.8319 12.7466 1.81105 -3.54022 2.7784e-06
288 1 20.3135 9.55758 -3.61145 -3.54024 1.45078e-06
289 1 19.9595 11.3292 -1.80395 -3.54022 1.33087e-06
290 1 19.6059 13.1004 0.00355411 -3.54019 1.71271e-06
291 1 19.2525 14.8715 1.81105 -3.54016 4.11845e-06
292 1 21.733 11.6829 -3.61145 -3.5402 7.63295e-07
293 1 21.3794 13.4544 -1.80395 -3.54018 1.82114e-06
294 1 21.0258 15.2259 0.00355442 -3.54018 2.64616e-06
295 1 20.672 16.9975 1.81105 -3.5402 2.04928e-06
296 1 23.1524 13.8086 -3.61145 -3.54019 1.38813e-06
297 1 22.7986 15.5804 -1.80395 -3.5402 1.44847e-06
298 1 22.4446 17.3523 0.00355466 -3.54021 1.07351e-06
299 1 24.5711 15.9349 -3.61144 -3.54021 8.45189e-07
300 1 24.217 17.707 -1.80395 -3.54021 7.22432e-07
301 1 25.9892 18.0618 -3.61144 -3.54021 5.07077e-07
302 1 1.89917 -17.9734 0.0035513 -3.45815 0.680581
303 1 1.39389 -16.2189 1.81105 -3.43202 0.736184
304 1 3.61853 -17.6881 -1.80395 -3.54358 0.0561261
305 1 3.27245 -15.9174 0.00355145 -3.51757 0.0751703
306 1 2.96068 -14.2243 1.81105 -3.50832 0.0897136
307 1 5.40179 -17.3736 -3.61145 -3.54362 0.00698732
308 1 5.08433 -15.6107 -1.80395 -3.53482 0.00980221
309 1 4.75371 -13.8503 0.00355171 -3.53173 0.0188025
310 1 4.39615 -12.0905 1.81105 -3.53787 0.0100151
311 1 6.86164 -15.2686 -3.61145 -3.53862 0.00370602
312 1 6.51744 -13.4923 -1.80395 -3.53798 0.00286087
313 1 6.15252 -11.7124 0.00355177 -3.54011 0.00137947
314 1 5.7811 -9.93518 1.81105 -3.5442 0.00640613
315 1 8.27657 -13.135 -3.61145 -3.5406 0.0002224
316 1 7.91671 -11.3561 -1.80395 -3.54099 0.0010451
317 1 7.55931 -9.58402 0.00355192 -3.5408 0.000868771
318 1 7.21321 -7.81729 1.81105 -3.53985 0.000911325
319 1 9.68806 -11.0055 -3.61145 -3.54066 0.00021251
320 1 9.3373 -9.23408 -1.80395 -3.53968 0.000107613
321 1 8.98811 -7.46352 0.00355208 -3.53938 0.000545329
322 1 8.63582 -5.68896 1.81105 -3.53999 0.000470879
323 1 11.1102 -8.88123 -3.61145 -3.53976 0.000113661
324 1 10.7573 -7.10739 -1.80395 -3.53982 0.00013442
325 1 10.4008 -5.33157 0.00355235 -3.54044 4.81942e-05
326 1 10.0421 -3.55492 1.81105 -3.54093 0.000230963
327 1 12.5253 -6.75154 -3.61145 -3.54022 1.29446e-05
328 1 12.1687 -4.97626 -1.80395 -3.54048 4.22302e-05
329 1 11.8123 -3.20182 0.00355253 -3.54052 5.94862e-05
330 1 11.4577 -1.42887 1.81105 -3.54014 1.81074e-05
331 1 13.9388 -4.62217 -3.61145 -3.54035 1.48482e-05
332 1 13.5838 -2.84855 -1.80395 -3.54022 2.98261e-06
333 1 13.2294 -1.07533 0.00355275 -3.54005 1.72715e-05
334 1 12.874 0.698268 1.81105 -3.54003 2.80228e-05
335 1 15.3551 -2.4946 -3.61145 -3.54014 2.09221e-06
336 1 14.9999 -0.720885 -1.80395 -3.54013 5.03244e-06
337 1 14.6438 1.05315 0.00355296 -3.54024 5.47843e-06
338 1 14.2868 2.82707 1.81105 -3.54036 3.25741e-05
339 1 16.7704 -0.366392 -3.61145 -3.54023 1.72848e-06
340 1 16.4145 1.40739 -1.80395 -3.5403 9.64562e-06
341 1 16.0585 3.18068 0.00355318 -3.54032 1.78465e-05
342 1 15.7032 4.95307 1.81105 -3.54023 1.00365e-05
343 1 18.1861 1.76117 -3.61145 -3.54028 6.84171e-06
344 1 17.831 3.53402 -1.80395 -3.54024 4.95104e-06
345 1 17.4763 5.30633 0.00355349 -3.54018 1.54075e-06
346 1 17.1218 7.07829 1.81105 -3.54015 1.58119e-06
347 1 19.6036 3.88746 -3.61145 -3.54021 1.06403e-06
348 1 19.2492 5.65983 -1.80395 -3.54019 3.68468e-07
349 1 18.8948 7.432 0.00355397 -3.5402 5.83452e-07
350 1 18.5402 9.20395 1.81105 -3.54024 2.08517e-06
351 1 21.0219 6.01344 -3.61145 -3.54021 2.9253e-07
352 1 20.6676 7.78564 -1.80395 -3.54023 7.68507e-07
353 1 20.3135 9.55758 0.00355428 -3.54024 1.45078e-06
354 1 19.9595 11.3292 1.81105 -3.54022 1.33087e-06
355 1 22.4406 8.13927 -3.61145 -3.54023 5.25032e-07
356 1 22.0867 9.91119 -1.80395 -3.54022 5.32487e-07
357 1 21.733 11.6829 0.00355457 -3.5402 7.63295e-07
358 1 21.3794 13.4544 1.81105 -3.54018 1.82114e-06
359 1 23.8598 10.2649 -3.61145 -3.54021 3.03787e-07
360 1 23.5061 12.0368 -1.80395 -3.5402 7.98333e-07
361 1 23.1524 13.8086 0.00355482 -3.54019 1.38813e-06
362 1 22.7986 15.5804 1.81105 -3.5402 1.44847e-06
363 1 25.279 12.3909 -3.61144 -3.5402 7.07602e-07
364 1 24.9251 14.1629 -1.80394 -3.5402 9.02549e-07
365 1 24.5711 15.9349 0.00355506 -3.54021 8.45189e-07
366 1 24.217 17.707 1.81105 -3.54021 7.22432e-07
367 1 26.6976 14.5173 -3.61144 -3.54021 5.80241e-07
368 1 26.3435 16.2895 -1.80394 -3.54021 5.38483e-07
369 1 25.9892 18.0618 0.00355537 -3.54021 5.07077e-07
370 1 28.1157 16.6441 -3.61144 -3.54021 3.42763e-07
371 1 27.7613 18.4165 -1.80394 -3.54021 3.30286e-07
372 1 3.61853 -17.6881 1.81105 -3.54358 0.0561261
373 1 5.40179 -17.3736 0.00355176 -3.54362 0.00698732
374 1 5.08433 -15.6107 1.81105 -3.53482 0.00980221
375 1 7.19477 -17.0372 -1.80395 -3.53952 0.0014428
376 1 6.86164 -15.2686 0.00355192 -3.53862 0.00370602
377 1 6.51744 -13.4923 1.81105 -3.53798 0.00286087
378 1 8.97622 -16.6861 -3.61145 -3.53915 0.00094234
379 1 8.63009 -14.914 -1.80395 -3.53979 0.000935912
380 1 8.27657 -13.135 0.00355198 -3.5406 0.0002224
381 1 7.91671 -11.3561 1.81105 -3.54099 0.0010451
382 1 10.3975 -14.5567 -3.61145 -3.5404 9.38555e-05
383 1 10.0423 -12.7805 -1.80395 -3.54096 0.000168927
384 1 9.68806 -11.0055 0.00355213 -3.54066 0.00021251
385 1 9.3373 -9.23408 1.81105 -3.53968 0.000107613
386 1 11.8132 -12.427 -3.61145 -3.54057 4.73501e-05
387 1 11.4612 -10.654 -1.80395 -3.5402 1.70705e-05
388 1 11.1102 -8.88123 0.00355244 -3.53976 0.000113661
389 1 10.7573 -7.10739 1.81105 -3.53982 0.00013442
390 1 13.2332 -10.3002 -3.61145 -3.54008 2.83163e-05
391 1 12.8802 -8.52645 -1.80395 -3.54004 4.15275e-05
392 1 12.5253 -6.75154 0.00355262 -3.54022 1.29446e-05
393 1 12.1687 -4.97626 1.81105 -3.54048 4.22302e-05
394 1 14.6498 -8.17112 -3.61145 -3.54023 7.06237e-06
395 1 14.2944 -6.39653 -1.80395 -3.54034 8.46114e-06
396 1 13.9388 -4.62217 0.00355281 -3.54035 1.48482e-05
397 1 13.5838 -2.84855 1.81105 -3.54022 2.98261e-06
398 1 16.0648 -6.04195 -3.61145 -3.5403 4.28443e-06
399 1 15.7098 -4.26817 -1.80395 -3.54023 1.24964e-06
400 1 15.3551 -2.4946 0.00355308 -3.54014 2.09221e-06
401 1 14.9999 -0.720885 1.81105 -3.54013 5.03244e-06
402 1 17.481 -3.91385 -3.61145 -3.5402 4.99037e-07
403 1 17.1259 -2.1402 -1.80395 -3.54018 9.42102e-07
404 1 16.7704 -0.366392 0.00355337 -3.54023 1.72848e-06
405 1 16.4145 1.40739 1.81105 -3.5403 9.64562e-06
406 1 18.8969 -1.78573 -3.61145 -3.54023 9.95033e-07
407 1 18.5415 -0.0121662 -1.80395 -3.54026 3.63112e-06
408 1 18.1861 1.76117 0.00355366 -3.54028 6.84171e-06
409 1 17.831 3.53402 1.81105 -3.54024 4.95104e-06
410 1 20.3132 0.34185 -3.61145 -3.54026 3.11974e-06
411 1 19.9582 2.11482 -1.80395 -3.54024 2.7476e-06
412 1 19.6036 3.88746 0.00355411 -3.54021 1.06403e-06
413 1 19.2492 5.65983 1.81105 -3.54019 3.68468e-07
414 1 21.7307 2.46852 -3.61145 -3.54023 9.70791e-07
415 1 21.3762 4.24106 -1.80395 -3.54021 3.65741e-07
416 1 21.0219 6.01344 0.00355442 -3.54021 2.9253e-07
417 1 20.6676 7.78564 1.81105 -3.54023 7.68507e-07
418 1 23.1489 4.59479 -3.61145 -3.54022 2.91791e-07
419 1 22.7947 6.36712 -1.80395 -3.54023 3.58886e-07
420 1 22.4406 8.13927 0.00355466 -3.54023 5.25032e-07
421 1 22.0867 9.91119 1.81105 -3.54022 5.32487e-07
422 1 24.5675 6.72086 -3.61144 -3.54023 2.44271e-07
423 1 24.2136 8.49297 -1.80395 -3.54022 2.09859e-07
424 1 23.8598 10.2649 0.00355496 -3.54021 3.03787e-07
425 1 23.5061 12.0368 1.81105 -3.5402 7.98333e-07
426 1 25.9865 8.84682 -3.61144 -3.54022 1.34474e-07
427 1 25.6327 10.6189 -1.80394 -3.54021 3.53472e-07
428 1 25.279 12.3909 0.00355526 -3.5402 7.07602e-07
429 1 24.9251 14.1629 1.81106 -3.5402 9.02549e-07
430 1 27.4055 10.9729 -3.61144 -3.54021 3.80808e-07
431 1 27.0516 12.7451 -1.80394 -3.54021 5.48489e-07
432 1 26.6976 14.5173 0.00355554 -3.54021 5.80241e-07
433 1 26.3435 16.2895 1.81106 -3.54021 5.38483e-07
434 1 28.824 13.0994 -3.61144 -3.54021 3.98027e-07
435 1 28.4699 14.8717 -1.80394 -3.54021 3.68257e-07
436 1 28.1157 16.6441 0.00355582 -3.54021 3.42763e-07
437 1 27.7613 18.4165 1.81106 -3.54021 3.30286e-07
438 1 30.2421 15.2262 -3.61144 -3.54021 2.14728e-07
439 1 29.8878 16.9987 -1.80394 -3.54021 2.15675e-07
440 1 31.6598 17.3533 -3.61144 -3.54022 1.61299e-07
441 1 7.19477 -17.0372 1.81105 -3.53952 0.0014428
442 1 8.97622 -16.6861 0.00355208 -3.53915 0.00094234
443 1 8.63009 -14.914 1.81105 -3.53979 0.000935912
444 1 11.0991 -18.101 -3.61145 -3.53961 0.000201242
445 1 10.75 -16.3305 -1.80395 -3.5397 0.000291948
446 1 10.3975 -14.5567 0.0035522 -3.5404 9.38555e-05
447 1 10.0423 -12.7805 1.81105 -3.54096 0.000168927
448 1 12.5213 -15.9742 -3.61145 -3.54016 3.68605e-05
449 1 12.1672 -14.2007 -1.80395 -3.54049 2.2764e-05
450 1 11.8132 -12.427 0.00355253 -3.54057 4.73501e-05
451 1 11.4612 -10.654 1.81105 -3.5402 1.70705e-05
452 1 13.9389 -13.8457 -3.61145 -3.54036 6.68591e-06
453 1 13.5857 -12.0731 -1.80395 -3.54025 5.82401e-06
454 1 13.2332 -10.3002 0.00355275 -3.54008 2.83163e-05
455 1 12.8802 -8.52645 1.81105 -3.54004 4.15275e-05
456 1 15.3578 -11.7183 -3.61145 -3.54015 8.25422e-06
457 1 15.0042 -9.94515 -1.80395 -3.54014 1.49755e-05
458 1 14.6498 -8.17112 0.00355296 -3.54023 7.06237e-06
459 1 14.2944 -6.39653 1.81105 -3.54034 8.46114e-06
460 1 16.7749 -9.58969 -3.61145 -3.54021 3.81274e-06
461 1 16.4199 -7.81591 -1.80395 -3.54028 2.83398e-06
462 1 16.0648 -6.04195 0.00355318 -3.5403 4.28443e-06
463 1 15.7098 -4.26817 1.81105 -3.54023 1.24964e-06
464 1 18.1908 -7.46088 -3.61145 -3.54026 1.59727e-06
465 1 17.8358 -5.68738 -1.80395 -3.54024 1.06795e-06
466 1 17.481 -3.91385 0.00355349 -3.5402 4.99037e-07
467 1 17.1259 -2.1402 1.81105 -3.54018 9.42102e-07
468 1 19.6071 -5.33266 -3.61145 -3.54022 5.15267e-07
469 1 19.2521 -3.55927 -1.80395 -3.54021 5.45095e-07
470 1 18.8969 -1.78573 0.00355397 -3.54023 9.95033e-07
471 1 18.5415 -0.0121662 1.81105 -3.54026 3.63112e-06
472 1 21.0235 -3.20465 -3.61145 -3.54023 7.65374e-07
473 1 20.6683 -1.43136 -1.80395 -3.54025 1.80547e-06
474 1 20.3132 0.34185 0.00355428 -3.54026 3.11974e-06
475 1 19.9582 2.11482 1.81105 -3.54024 2.7476e-06
476 1 22.4401 -1.0771 -3.61145 -3.54024 1.66806e-06
477 1 22.0853 0.695801 -1.80395 -3.54024 1.69308e-06
478 1 21.7307 2.46852 0.00355457 -3.54023 9.70791e-07
479 1 21.3762 4.24106 1.81105 -3.54021 3.65741e-07
480 1 23.8576 1.04978 -3.61145 -3.54023 8.25367e-07
481 1 23.5032 2.82234 -1.80395 -3.54022 4.62006e-07
482 1 23.1489 4.59479 0.00355482 -3.54022 2.91791e-07
483 1 22.7947 6.36712 1.81105 -3.54023 3.58886e-07
484 1 25.2758 3.17625 -3.61144 -3.54022 3.03044e-07
485 1 24.9216 4.94861 -1.80394 -3.54023 2.5328e-07
486 1 24.5675 6.72086 0.00355506 -3.54023 2.44271e-07
487 1 24.2136 8.49297 1.81105 -3.54022 2.09859e-07
488 1 26.6944 5.30251 -3.61144 -3.54022 1.6264e-07
489 1 26.3404 7.07471 -1.80394 -3.54022 1.18162e-07
490 1 25.9865 8.84682 0.00355537 -3.54022 1.34474e-07
491 1 25.6327 10.6189 1.81106 -3.54021 3.53472e-07
492 1 28.1132 7.42869 -3.61144 -3.54022 8.13282e-08
493 1 27.7593 9.20082 -1.80394 -3.54021 1.76277e-07
494 1 27.4055 10.9729 0.00355567 -3.54021 3.80808e-07
495 1 27.0516 12.7451 1.81106 -3.54021 5.48489e-07
496 1 29.532 9.55497 -3.61144 -3.54021 2.28221e-07
497 1 29.178 11.3272 -1.80394 -3.54021 3.61228e-07
498 1 28.824 13.0994 0.00355594 -3.54021 3.98027e-07
499 1 28.4699 14.8717 1.81106 -3.54021 3.68257e-07
500 1 30.9504 11.6815 -3.61144 -3.54022 3.01059e-07
501 1 30.5963 13.4539 -1.80394 -3.54021 2.50889e-07
502 1 30.2421 15.2262 0.00355621 -3.54021 2.14728e-07
503 1 29.8878 16.9987 1.81106 -3.54021 2.15675e-07
504 1 32.3685 13.8084 -3.61144 -3.54021 1.15438e-07
505 1 32.0142 15.5808 -1.80394 -3.54021 1.27887e-07
506 1 31.6598 17.3533 0.00355641 -3.54022 1.61299e-07
507 1 33.7864 15.9354 -3.61144 -3.54022 1.33496e-07
508 1 33.4319 17.7079 -1.80394 -3.54022 1.62041e-07
509 1 35.2039 18.0625 -3.61144 -3.54023 1.5178e-07
510 1 11.0991 -18.101 0.00355244 -3.53961 0.000201242
511 1 10.75 -16.3305 1.81105 -3.5397 0.000291948
512 1 12.8736 -17.7463 -1.80395 -3.53993 9.27182e-05
513 1 12.5213 -15.9742 0.00355262 -3.54016 3.68605e-05
514 1 12.1672 -14.2007 1.81105 -3.54049 2.2764e-05
515 1 14.6464 -17.3907 -3.61145 -3.54016 1.95292e-05
516 1 14.2927 -15.6184 -1.80395 -3.54031 3.48513e-06
517 1 13.9389 -13.8457 0.00355281 -3.54036 6.68591e-06
518 1 13.5857 -12.0731 1.81105 -3.54025 5.82401e-06
519 1 16.0649 -15.2631 -3.61145 -3.54028 8.0738e-07
520 1 15.7112 -13.4908 -1.80395 -3.54024 1.49281e-06
521 1 15.3578 -11.7183 0.00355308 -3.54015 8.25422e-06
522 1 15.0042 -9.94515 1.81105 -3.54014 1.49755e-05
523 1 17.4834 -13.1356 -3.61145 -3.54019 2.87662e-06
524 1 17.1293 -11.363 -1.80395 -3.54017 5.38924e-06
525 1 16.7749 -9.58969 0.00355337 -3.54021 3.81274e-06
526 1 16.4199 -7.81591 1.81105 -3.54028 2.83398e-06
527 1 18.9007 -11.0075 -3.61145 -3.54021 1.78707e-06
528 1 18.5458 -9.2343 -1.80395 -3.54024 1.17703e-06
529 1 18.1908 -7.46088 0.00355366 -3.54026 1.59727e-06
530 1 17.8358 -5.68738 1.81105 -3.54024 1.06795e-06
531 1 20.3171 -8.87906 -3.61145 -3.54024 5.78367e-07
532 1 19.9621 -7.10592 -1.80395 -3.54024 6.50846e-07
533 1 19.6071 -5.33266 0.00355411 -3.54022 5.15267e-07
534 1 19.2521 -3.55927 1.81105 -3.54021 5.45095e-07
535 1 21.7336 -6.75097 -3.61145 -3.54022 3.37115e-07
536 1 21.3786 -4.97787 -1.80395 -3.54022 4.38187e-07
537 1 21.0235 -3.20465 0.00355442 -3.54023 7.65374e-07
538 1 20.6683 -1.43136 1.81105 -3.54025 1.80547e-06
539 1 23.1502 -4.62311 -3.61145 -3.54022 5.03545e-07
540 1 22.7951 -2.8501 -1.80395 -3.54024 1.02769e-06
541 1 22.4401 -1.0771 0.00355466 -3.54024 1.66806e-06
542 1 22.0853 0.695801 1.81105 -3.54024 1.69308e-06
543 1 24.5671 -2.49564 -3.61144 -3.54023 9.41914e-07
544 1 24.2123 -0.722882 -1.80395 -3.54023 1.08046e-06
545 1 23.8576 1.04978 0.00355496 -3.54023 8.25367e-07
546 1 23.5032 2.82234 1.81105 -3.54022 4.62006e-07
547 1 25.9847 -0.368679 -3.61144 -3.54023 6.22137e-07
548 1 25.6301 1.40382 -1.80394 -3.54022 4.44048e-07
549 1 25.2758 3.17625 0.00355526 -3.54022 3.03044e-07
550 1 24.9216 4.94861 1.81106 -3.54023 2.5328e-07
551 1 27.4027 1.75791 -3.61144 -3.54022 2.5636e-07
552 1 27.0485 3.53024 -1.80394 -3.54022 1.99404e-07
553 1 26.6944 5.30251 0.00355554 -3.54022 1.6264e-07
554 1 26.3404 7.07471 1.81106 -3.54022 1.18162e-07
555 1 28.8212 3.8843 -3.61144 -3.54022 1.161e-07
556 1 28.4671 5.65652 -1.80394 -3.54022 9.05398e-08
557 1 28.1132 7.42869 0.00355582 -3.54022 8.13282e-08
558 1 27.7593 9.20082 1.81106 -3.54021 1.76277e-07
559 1 30.2399 6.01063 -3.61144 -3.54022 5.66117e-08
560 1 29.8859 7.7828 -1.80394 -3.54021 9.54652e-08
561 1 29.532 9.55497 0.00355609 -3.54021 2.28221e-07
562 1 29.178 11.3272 1.81106 -3.54021 3.61228e-07
563 1 31.6585 8.13702 -3.61144 -3.54022 1.43116e-07
564 1 31.3045 9.90924 -1.80394 -3.54022 2.73125e-07
565 1 30.9504 11.6815 0.0035563 -3.54022 3.01059e-07
566 1 30.5963 13.4539 1.81106 -3.54021 2.50889e-07
567 1 33.077 10.2636 -3.61144 -3.54022 2.74491e-07
568 1 32.7228 12.036 -1.80394 -3.54022 1.77896e-07
569 1 32.3685 13.8084 0.00355648 -3.54021 1.15438e-07
570 1 32.0142 15.5808 1.81106 -3.54021 1.27887e-07
571 1 34.495 12.3905 -3.61144 -3.54021 3.64602e-08
572 1 34.1407 14.1629 -1.80394 -3.54021 5.13733e-08
573 1 33.7864 15.9354 0.00355663 -3.54022 1.33496e-07
574 1 33.4319 17.7079 1.81106 -3.54022 1.62041e-07
575 1 35.9129 14.5174 -3.61144 -3.54021 1.12594e-07
576 1 35.5585 16.2899 -1.80394 -3.54023 2.61443e-07