ITEM: TIMESTEP
0
ITEM: NUMBER OF ATOMS
2504
ITEM: BOX BOUNDS xy xz yz mm pp pp
-5.5498871899999997e+01 5.5498871899999997e+01 0.0000000000000000e+00
-1.8432957300000002e+01 1.8432957300000002e+01 0.0000000000000000e+00
-3.6150000000000002e+00 3.6150000000000002e+00 0.0000000000000000e+00
ITEM: ATOMS id type x y z c_eng c_csym
1 1 0.631607 16.768 -3.60079 -3.43951 3.54114
2 1 0.2915 -18.2802 -1.79329 -3.2813 9.03879
3 1 0.984559 13.05 -3.60079 -3.50095 0.303944
4 1 0.850499 14.8072 -1.79329 -3.50393 0.58325
5 1 0.631607 16.768 0.0142129 -3.43951 3.54114
6 1 0.2915 -18.2802 1.82171 -3.2813 9.03879
7 1 2.57602 15.18 -3.60079 -3.54056 0.118792
8 1 2.28383 17.0193 -1.79329 -3.51959 0.0839863
9 1 3.97102 17.3785 -3.60079 -3.54437 0.03024
10 1 0.508397 7.40989 -3.60079 -3.52131 0.860067
11 1 0.165189 9.16165 -1.79329 -3.37459 2.43221
12 1 1.80691 9.60378 -3.60079 -3.50315 0.207948
13 1 1.32617 11.3699 -1.79329 -3.5044 0.297205
14 1 0.984559 13.05 0.0142131 -3.50095 0.303944
15 1 0.850499 14.8072 1.82171 -3.50393 0.58325
16 1 3.19118 11.6959 -3.60079 -3.52556 0.0334526
17 1 2.88756 13.4093 -1.79329 -3.51598 0.0641573
18 1 2.57602 15.18 0.0142131 -3.54056 0.118792
19 1 2.28383 17.0193 1.82171 -3.51959 0.0839863
20 1 4.68157 13.7844 -3.60079 -3.53347 0.0127757
21 1 4.33506 15.5588 -1.79329 -3.53789 0.0153549
22 1 3.97102 17.3785 0.0142132 -3.54437 0.03024
23 1 6.08978 15.9335 -3.60079 -3.54107 0.00303877
24 1 5.72591 17.7203 -1.79329 -3.54498 0.0147083
25 1 7.51345 18.0585 -3.60079 -3.54159 0.00347913
26 1 1.10383 3.78445 -3.60079 -3.53376 0.107368
27 1 0.825883 5.56606 -1.79329 -3.54243 0.0655436
28 1 0.508397 7.40989 0.0142129 -3.52131 0.859991
29 1 0.165189 9.16165 1.82171 -3.37538 2.43221
30 1 2.57227 5.94509 -3.60079 -3.54147 0.0275393
31 1 2.23293 7.74624 -1.79329 -3.52429 0.0371468
32 1 1.80691 9.60378 0.0142131 -3.50315 0.207948
33 1 1.32617 11.3699 1.82171 -3.5044 0.297205
34 1 3.9433 8.13703 -3.60079 -3.54334 0.0142895
35 1 3.54961 9.93543 -1.79329 -3.54281 0.0469284
36 1 3.19118 11.6959 0.0142132 -3.52556 0.0334526
37 1 2.88756 13.4093 1.82171 -3.51598 0.0641573
38 1 5.34416 10.2694 -3.60079 -3.54178 0.00648687
39 1 5.0137 12.025 -1.79329 -3.5345 0.0062127
40 1 4.68157 13.7844 0.0142139 -3.53347 0.0127757
41 1 4.33506 15.5588 1.82171 -3.53789 0.0153549
42 1 6.80141 12.3785 -3.60079 -3.53798 0.00269059
43 1 6.453 14.1506 -1.79329 -3.53808 0.00184024
44 1 6.08978 15.9335 0.0142139 -3.54107 0.00303877
45 1 5.72591 17.7203 1.82171 -3.54498 0.0147083
46 1 8.22122 14.5128 -3.60079 -3.54062 0.000453143
47 1 7.86222 16.2881 -1.79329 -3.54157 0.00273355
48 1 7.51345 18.0585 0.014214 -3.54159 0.00347913
49 1 9.64708 16.6359 -3.60079 -3.5408 0.000938012
50 1 9.30681 18.3997 -1.79329 -3.5398 0.000488164
51 1 0.52519 -1.82488 -3.60079 -3.52686 0.663919
52 1 0.19106 -0.0906122 -1.79329 -3.40518 1.74437
53 1 1.9106 0.312692 -3.60079 -3.52283 0.100867
54 1 1.48476 2.06618 -1.79329 -3.52104 0.102359
55 1 1.10383 3.78445 0.0142131 -3.53376 0.107292
56 1 0.825883 5.56606 1.82171 -3.54175 0.0655436
57 1 3.2884 2.44058 -3.60079 -3.53252 0.00877138
58 1 2.92997 4.18098 -1.79329 -3.53274 0.0110392
59 1 2.57227 5.94509 0.0142131 -3.54147 0.0275393
60 1 2.23293 7.74624 1.82171 -3.5244 0.0371468
61 1 4.70739 4.56802 -3.60079 -3.53655 0.00307542
62 1 4.33434 6.33804 -1.79329 -3.53786 0.00524714
63 1 3.9433 8.13703 0.0142132 -3.54334 0.0142895
64 1 3.54961 9.93543 1.82171 -3.54281 0.0469284
65 1 6.08954 6.72371 -3.60079 -3.54091 0.00232942
66 1 5.70574 8.50081 -1.79329 -3.54356 0.0097564
67 1 5.34416 10.2694 0.0142139 -3.54178 0.00648687
68 1 5.0137 12.025 1.82171 -3.5345 0.0062127
69 1 7.49297 8.85547 -3.60079 -3.54084 0.00210197
70 1 7.14304 10.6153 -1.79329 -3.53899 0.000843778
71 1 6.80141 12.3785 0.014214 -3.53798 0.00269059
72 1 6.453 14.1506 1.82171 -3.53808 0.00184024
73 1 8.93051 10.9717 -3.60079 -3.53907 0.00050258
74 1 8.5784 12.7389 -1.79329 -3.53954 0.000491956
75 1 8.22122 14.5128 0.014214 -3.54062 0.000453143
76 1 7.86222 16.2881 1.82171 -3.54157 0.00273355
77 1 10.3545 13.0986 -3.60079 -3.54041 0.000106814
78 1 9.99801 14.8682 -1.79329 -3.54101 0.000690679
79 1 9.64708 16.6359 0.0142141 -3.5408 0.000938012
80 1 9.30681 18.3997 1.82171 -3.5398 0.000488164
81 1 11.7813 15.2204 -3.60079 -3.54056 0.000289752
82 1 11.435 16.9844 -1.79329 -3.54008 0.000158847
83 1 13.2203 17.3361 -3.60079 -3.53983 0.000128363
84 1 1.14852 -5.39597 -3.60079 -3.52706 0.150574
85 1 0.846827 -3.64942 -1.79329 -3.54769 0.0779461
86 1 0.52519 -1.82488 0.0142129 -3.52686 0.663843
87 1 0.19106 -0.0906122 1.82171 -3.40544 1.74437
88 1 2.62289 -3.25067 -3.60079 -3.54353 0.0223511
89 1 2.28547 -1.48996 -1.79329 -3.53374 0.0195495
90 1 1.9106 0.312692 0.0142131 -3.52283 0.100829
91 1 1.48476 2.06618 1.82171 -3.52148 0.102359
92 1 4.03815 -1.09781 -3.60079 -3.54326 0.00305872
93 1 3.66126 0.67484 -1.79329 -3.54113 0.00458635
94 1 3.2884 2.44058 0.0142132 -3.53252 0.00877138
95 1 2.92997 4.18098 1.82171 -3.53285 0.0110392
96 1 5.43444 1.04307 -3.60079 -3.54157 0.000544218
97 1 5.07225 2.80429 -1.79329 -3.53829 0.00101121
98 1 4.70739 4.56802 0.0142139 -3.53655 0.00307542
99 1 4.33434 6.33804 1.82171 -3.53786 0.00524714
100 1 6.84406 3.17563 -3.60079 -3.53937 0.000608719
101 1 6.47225 4.94627 -1.79329 -3.53896 0.00065945
102 1 6.08954 6.72371 0.0142139 -3.54091 0.00232942
103 1 5.70574 8.50081 1.82171 -3.54356 0.0097564
104 1 8.23624 5.31783 -3.60079 -3.54058 0.000657586
105 1 7.86003 7.08966 -1.79329 -3.54129 0.00241337
106 1 7.49297 8.85547 0.014214 -3.54084 0.00210197
107 1 7.14304 10.6153 1.82171 -3.53899 0.000843778
108 1 9.64085 7.44682 -3.60079 -3.54051 0.000791342
109 1 9.28249 9.20945 -1.79329 -3.53957 0.000193361
110 1 8.93051 10.9717 0.014214 -3.53907 0.00050258
111 1 8.5784 12.7389 1.82171 -3.53954 0.000491956
112 1 11.0667 9.56539 -3.60079 -3.53956 7.55802e-05
113 1 10.7112 11.3305 -1.79329 -3.53971 8.39282e-05
114 1 10.3545 13.0986 0.0142141 -3.54041 0.000106814
115 1 9.99801 14.8682 1.82171 -3.54101 0.000690679
116 1 12.4901 11.6879 -3.60079 -3.54017 2.84365e-05
117 1 12.134 13.4546 -1.79329 -3.54053 0.000181541
118 1 11.7813 15.2204 0.0142148 -3.54056 0.000289752
119 1 11.435 16.9844 1.82171 -3.54008 0.000158847
120 1 13.916 13.8082 -3.60079 -3.54034 9.3947e-05
121 1 13.5661 15.5724 -1.79329 -3.54015 5.86117e-05
122 1 13.2203 17.3361 0.0142149 -3.53983 0.000128363
123 1 15.349 15.9256 -3.60078 -3.53998 4.86034e-05
124 1 15.0017 17.6906 -1.79328 -3.53987 0.000138649
125 1 16.7797 18.0467 -3.60078 -3.53998 9.78112e-05
126 1 0.698602 -10.9037 -3.60079 -3.46038 2.95699
127 1 0.410158 -9.13216 -1.79329 -3.30189 8.30999
128 1 2.05547 -8.79449 -3.60079 -3.49181 0.362156
129 1 1.59623 -7.0383 -1.79329 -3.48322 0.346966
130 1 1.14852 -5.39597 0.0142131 -3.52706 0.150499
131 1 0.846827 -3.64942 1.82171 -3.54707 0.0779461
132 1 3.38695 -6.69636 -3.60079 -3.52739 0.0599872
133 1 3.00572 -4.96932 -1.79329 -3.52594 0.0269015
134 1 2.62289 -3.25067 0.0142131 -3.54353 0.0223511
135 1 2.28547 -1.48996 1.82171 -3.5339 0.0195495
136 1 4.79132 -4.60286 -3.60079 -3.53456 0.012267
137 1 4.4176 -2.85532 -1.79329 -3.5365 0.00457559
138 1 4.03815 -1.09781 0.0142138 -3.54326 0.00305872
139 1 3.66126 0.67484 1.82171 -3.54117 0.00458635
140 1 6.18676 -2.48154 -3.60079 -3.53833 0.00280905
141 1 5.80814 -0.718397 -1.79329 -3.54087 0.000879118
142 1 5.43444 1.04307 0.0142139 -3.54157 0.000544218
143 1 5.07225 2.80429 1.82171 -3.53829 0.00101121
144 1 7.58019 -0.353314 -3.60079 -3.53977 0.00089994
145 1 7.21152 1.41056 -1.79329 -3.53964 0.000312784
146 1 6.84406 3.17563 0.014214 -3.53937 0.000608719
147 1 6.47225 4.94627 1.82171 -3.53896 0.00065945
148 1 8.98211 1.77508 -3.60079 -3.53936 0.000408274
149 1 8.61149 3.5453 -1.79329 -3.53972 0.00023583
150 1 8.23624 5.31783 0.014214 -3.54058 0.000657586
151 1 7.86003 7.08966 1.82171 -3.54129 0.00241337
152 1 10.3787 3.90867 -3.60079 -3.54018 0.000357168
153 1 10.0077 5.67977 -1.79329 -3.54069 0.000809753
154 1 9.64085 7.44682 0.0142141 -3.54051 0.000791342
155 1 9.28249 9.20945 1.82171 -3.53957 0.000193361
156 1 11.7842 6.03533 -3.60079 -3.54031 0.000397854
157 1 11.4234 7.80134 -1.79329 -3.53993 0.000148341
158 1 11.0667 9.56539 0.0142147 -3.53956 7.55802e-05
159 1 10.7112 11.3305 1.82171 -3.53971 8.39282e-05
160 1 13.2037 8.15519 -3.60079 -3.53985 5.80084e-05
161 1 12.8469 9.92138 -1.79329 -3.53986 2.83751e-05
162 1 12.4901 11.6879 0.0142148 -3.54017 2.84365e-05
163 1 12.134 13.4546 1.82171 -3.54053 0.000181541
164 1 14.6254 10.2759 -3.60079 -3.54011 3.41849e-05
165 1 14.2697 12.0426 -1.79329 -3.54029 6.66543e-05
166 1 13.916 13.8082 0.0142149 -3.54034 9.3947e-05
167 1 13.5661 15.5724 1.82171 -3.54015 5.86117e-05
168 1 16.0498 12.3956 -3.60078 -3.54023 4.59958e-05
169 1 15.6981 14.161 -1.79328 -3.54014 2.98128e-05
170 1 15.349 15.9256 0.014215 -3.53998 4.86034e-05
171 1 15.0017 17.6906 1.82172 -3.53987 0.000138649
172 1 17.4787 14.514 -3.60078 -3.54006 2.79224e-05
173 1 17.129 16.2799 -1.79328 -3.53998 6.28976e-05
174 1 16.7797 18.0467 0.0142152 -3.53998 9.78112e-05
175 1 18.9064 16.6351 -3.60078 -3.54003 5.3969e-05
176 1 18.5553 18.4034 -1.79328 -3.54007 5.67945e-05
177 1 1.00919 -14.5512 -3.60079 -3.48529 0.459887
178 1 0.895697 -12.8086 -1.79329 -3.52155 0.477537
179 1 0.698602 -10.9037 0.0142129 -3.46038 2.95699
180 1 0.410158 -9.13216 1.82171 -3.30098 8.30999
181 1 2.65559 -12.4662 -3.60079 -3.54293 0.12498
182 1 2.39425 -10.6636 -1.79329 -3.53041 0.0831263
183 1 2.05547 -8.79449 0.0142131 -3.49181 0.362118
184 1 1.59623 -7.0383 1.82171 -3.48383 0.346966
185 1 4.10373 -10.3072 -3.60079 -3.54511 0.0194393
186 1 3.75365 -8.49213 -1.79329 -3.5411 0.0151236
187 1 3.38695 -6.69636 0.0142132 -3.52739 0.0599872
188 1 3.00572 -4.96932 1.82171 -3.52604 0.0269015
189 1 5.49735 -8.15866 -3.60079 -3.54393 0.0028183
190 1 5.15046 -6.37307 -1.79329 -3.53915 0.00405567
191 1 4.79132 -4.60286 0.0142139 -3.53456 0.012267
192 1 4.4176 -2.85532 1.82171 -3.5365 0.00457559
193 1 6.90981 -6.0322 -3.60079 -3.54048 0.00033711
194 1 6.55523 -4.25329 -1.79329 -3.53857 0.0022394
195 1 6.18676 -2.48154 0.0142139 -3.53833 0.00280905
196 1 5.80814 -0.718397 1.82171 -3.54087 0.000879118
197 1 8.31335 -3.90166 -3.60079 -3.54013 0.000263017
198 1 7.9494 -2.12374 -1.79329 -3.53985 0.000925762
199 1 7.58019 -0.353314 0.014214 -3.53977 0.00089994
200 1 7.21152 1.41056 1.82171 -3.53964 0.000312784
201 1 9.71234 -1.77024 -3.60079 -3.54022 0.000204407
202 1 9.34876 0.00433367 -1.79329 -3.53963 0.000411157
203 1 8.98211 1.77508 0.014214 -3.53936 0.000408274
204 1 8.61149 3.5453 1.82171 -3.53972 0.00023583
205 1 11.1141 0.360034 -3.60079 -3.53983 0.000143051
206 1 10.7485 2.13521 -1.79329 -3.53976 0.000223917
207 1 10.3787 3.90867 0.0142147 -3.54018 0.000357168
208 1 10.0077 5.67977 1.82171 -3.54069 0.000809753
209 1 12.5146 2.49137 -3.60079 -3.54017 0.000180176
210 1 12.1489 4.26532 -1.79329 -3.54033 0.000378232
211 1 11.7842 6.03533 0.0142148 -3.54031 0.000397854
212 1 11.4234 7.80134 1.82171 -3.53993 0.000148341
213 1 13.9215 4.61794 -3.60079 -3.54027 0.000205845
214 1 13.5616 6.38794 -1.79329 -3.54006 0.000136821
215 1 13.2037 8.15519 0.0142149 -3.53985 5.80084e-05
216 1 12.8469 9.92138 1.82171 -3.53986 2.83751e-05
217 1 15.3382 6.73952 -3.60078 -3.54004 5.30491e-05
218 1 14.9817 8.50827 -1.79328 -3.53999 3.79147e-05
219 1 14.6254 10.2759 0.014215 -3.54011 3.41849e-05
220 1 14.2697 12.0426 1.82171 -3.54029 6.66543e-05
221 1 16.7585 8.86038 -3.60078 -3.54013 3.14299e-05
222 1 16.4036 10.6287 -1.79328 -3.5402 4.22773e-05
223 1 16.0498 12.3956 0.0142151 -3.54023 4.59958e-05
224 1 15.6981 14.161 1.82172 -3.54014 2.98128e-05
225 1 18.1816 10.9804 -3.60078 -3.54021 2.77971e-05
226 1 17.8294 12.7477 -1.79328 -3.54015 2.27934e-05
227 1 17.4787 14.514 0.0142152 -3.54006 2.79224e-05
228 1 17.129 16.2799 1.82172 -3.53998 6.28976e-05
229 1 19.6077 13.1 -3.60078 -3.54012 1.85836e-05
230 1 19.257 14.8675 -1.79328 -3.54005 3.49646e-05
231 1 18.9064 16.6351 0.0142154 -3.54003 5.3969e-05
232 1 18.5553 18.4034 1.82172 -3.54007 5.67945e-05
233 1 21.0332 15.2215 -3.60078 -3.54009 3.19489e-05
234 1 20.6816 16.9906 -1.79328 -3.54009 3.72234e-05
235 1 22.4552 17.3462 -3.60078 -3.54014 2.35422e-05
236 1 1.89525 -17.9304 -3.60079 -3.45376 0.629771
237 1 1.37828 -16.158 -1.79329 -3.43975 0.686266
238 1 1.00919 -14.5512 0.0142131 -3.48529 0.459887
239 1 0.895697 -12.8086 1.82171 -3.52155 0.477537
240 1 3.26183 -15.8806 -3.60079 -3.51757 0.0881034
241 1 2.95943 -14.189 -1.79329 -3.50894 0.0682577
242 1 2.65559 -12.4662 0.0142131 -3.54293 0.12498
243 1 2.39425 -10.6636 1.82171 -3.53046 0.0831263
244 1 4.77405 -13.8439 -3.60079 -3.53083 0.0197919
245 1 4.4463 -12.0944 -1.79329 -3.53601 0.0177338
246 1 4.10373 -10.3072 0.0142138 -3.54511 0.0194393
247 1 3.75365 -8.49213 1.82171 -3.54114 0.0151236
248 1 6.20809 -11.7269 -3.60079 -3.53849 0.00217106
249 1 5.85108 -9.94655 -1.79329 -3.54279 0.00188299
250 1 5.49735 -8.15866 0.0142139 -3.54393 0.0028183
251 1 5.15046 -6.37307 1.82171 -3.53915 0.00405567
252 1 7.61182 -9.59153 -3.60079 -3.54075 0.000168341
253 1 7.25951 -7.81276 -1.79329 -3.54116 0.000294885
254 1 6.90981 -6.0322 0.014214 -3.54048 0.00033711
255 1 6.55523 -4.25329 1.82171 -3.53857 0.0022394
256 1 9.02362 -7.4616 -3.60079 -3.54009 4.25743e-05
257 1 8.67044 -5.68231 -1.79329 -3.54025 0.000139048
258 1 8.31335 -3.90166 0.014214 -3.54013 0.000263017
259 1 7.9494 -2.12374 1.82171 -3.53985 0.000925762
260 1 10.4316 -5.32901 -3.60079 -3.54019 3.70597e-05
261 1 10.0733 -3.54887 -1.79329 -3.54042 4.84872e-05
262 1 9.71234 -1.77024 0.0142141 -3.54022 0.000204407
263 1 9.34876 0.00433367 1.82171 -3.53963 0.000411157
264 1 11.8357 -3.19558 -3.60079 -3.5403 1.61881e-05
265 1 11.4761 -1.41698 -1.79329 -3.54014 4.4776e-05
266 1 11.1141 0.360034 0.0142147 -3.53983 0.000143051
267 1 10.7485 2.13521 1.82171 -3.53976 0.000223917
268 1 13.2402 -1.06323 -3.60079 -3.54012 1.85268e-05
269 1 12.8787 0.71476 -1.79329 -3.54008 5.95912e-05
270 1 12.5146 2.49137 0.0142148 -3.54017 0.000180176
271 1 12.1489 4.26532 1.82171 -3.54033 0.000378232
272 1 14.6446 1.06829 -3.60079 -3.54025 6.47471e-05
273 1 14.283 2.8445 -1.79329 -3.54032 0.000154511
274 1 13.9215 4.61794 0.0142149 -3.54027 0.000205845
275 1 13.5616 6.38794 1.82171 -3.54006 0.000136821
276 1 16.0536 3.19594 -3.60078 -3.5403 9.17784e-05
277 1 15.6954 4.96892 -1.79328 -3.54019 8.02063e-05
278 1 15.3382 6.73952 0.014215 -3.54004 5.30491e-05
279 1 14.9817 8.50827 1.82172 -3.53999 3.79147e-05
280 1 17.4694 5.31953 -3.60078 -3.54017 3.1259e-05
281 1 17.1138 7.09068 -1.79328 -3.54011 2.69729e-05
282 1 16.7585 8.86038 0.0142152 -3.54013 3.14299e-05
283 1 16.4036 10.6287 1.82172 -3.5402 4.22773e-05
284 1 18.8891 7.4416 -3.60078 -3.54019 1.76585e-05
285 1 18.535 9.21172 -1.79328 -3.54021 2.43031e-05
286 1 18.1816 10.9804 0.0142153 -3.54021 2.77971e-05
287 1 17.8294 12.7477 1.82172 -3.54015 2.27934e-05
288 1 20.3113 9.56276 -3.60078 -3.54022 1.34267e-05
289 1 19.9591 11.3319 -1.79328 -3.54018 1.39482e-05
290 1 19.6077 13.1 0.0142161 -3.54012 1.85836e-05
291 1 19.257 14.8675 1.82172 -3.54005 3.49646e-05
292 1 21.7357 11.6836 -3.60078 -3.54016 9.74606e-06
293 1 21.3844 13.4527 -1.79328 -3.54012 1.96208e-05
294 1 21.0332 15.2215 0.0142162 -3.54009 3.19489e-05
295 1 20.6816 16.9906 1.82172 -3.54009 3.72234e-05
296 1 23.1596 13.806 -3.60078 -3.54014 1.79435e-05
297 1 22.8077 15.576 -1.79328 -3.54013 2.37298e-05
298 1 22.4552 17.3462 0.0142163 -3.54014 2.35422e-05
299 1 24.581 15.9307 -3.60078 -3.54016 1.58493e-05
300 1 24.2279 17.7018 -1.79328 -3.54017 1.44268e-05
301 1 25.9997 18.0574 -3.60078 -3.54018 8.66634e-06
302 1 1.89525 -17.9304 0.0142131 -3.45376 0.629771
303 1 1.37828 -16.158 1.82171 -3.43975 0.686266
304 1 3.6052 -17.6605 -1.79329 -3.54176 0.0683195
305 1 3.26183 -15.8806 0.0142132 -3.51757 0.0881034
306 1 2.95943 -14.189 1.82171 -3.50894 0.0682577
307 1 5.38719 -17.3633 -3.60079 -3.54414 0.0118838
308 1 5.08224 -15.5978 -1.79329 -3.53548 0.00814817
309 1 4.77405 -13.8439 0.0142139 -3.53083 0.0197919
310 1 4.4463 -12.0944 1.82171 -3.53601 0.0177338
311 1 6.87102 -15.2757 -3.60079 -3.53852 0.00431674
312 1 6.55008 -13.5036 -1.79329 -3.53703 0.00601341
313 1 6.20809 -11.7269 0.0142139 -3.53849 0.00217106
314 1 5.85108 -9.94655 1.82171 -3.54279 0.00188299
315 1 8.3122 -13.1547 -3.60079 -3.53967 0.00122874
316 1 7.96563 -11.3723 -1.79329 -3.54005 0.00022611
317 1 7.61182 -9.59153 0.014214 -3.54075 0.000168341
318 1 7.25951 -7.81276 1.82171 -3.54116 0.000294885
319 1 9.72627 -11.0207 -3.60079 -3.54048 5.05879e-05
320 1 9.37553 -9.24037 -1.79329 -3.54014 1.30111e-05
321 1 9.02362 -7.4616 0.014214 -3.54009 4.25743e-05
322 1 8.67044 -5.68231 1.82171 -3.54025 0.000139048
323 1 11.1394 -8.88846 -3.60079 -3.54011 2.7116e-05
324 1 10.7868 -7.10888 -1.79329 -3.53998 4.1731e-05
325 1 10.4316 -5.32901 0.0142147 -3.54019 3.70597e-05
326 1 10.0733 -3.54887 1.82171 -3.54042 4.84872e-05
327 1 12.5498 -6.75509 -3.60079 -3.54012 2.55979e-05
328 1 12.1937 -4.97518 -1.79329 -3.54022 1.46683e-05
329 1 11.8357 -3.19558 0.0142148 -3.5403 1.61881e-05
330 1 11.4761 -1.41698 1.82171 -3.54014 4.4776e-05
331 1 13.9572 -4.62112 -3.60079 -3.54022 1.06831e-05
332 1 13.5995 -2.84193 -1.79329 -3.54018 8.9193e-06
333 1 13.2402 -1.06323 0.0142149 -3.54012 1.85268e-05
334 1 12.8787 0.71476 1.82171 -3.54008 5.95912e-05
335 1 15.3642 -2.48796 -3.60078 -3.54018 9.70505e-06
336 1 15.0051 -0.709497 -1.79328 -3.54019 2.03743e-05
337 1 14.6446 1.06829 0.014215 -3.54025 6.47471e-05
338 1 14.283 2.8445 1.82171 -3.54032 0.000154511
339 1 16.7716 -0.356182 -3.60078 -3.54026 3.26659e-05
340 1 16.4126 1.42069 -1.79328 -3.54031 6.61061e-05
341 1 16.0536 3.19594 0.0142151 -3.5403 9.17784e-05
342 1 15.6954 4.96892 1.82172 -3.54019 8.02063e-05
343 1 18.1825 1.77241 -3.60078 -3.5403 4.6966e-05
344 1 17.8256 3.54679 -1.79328 -3.54025 4.31178e-05
345 1 17.4694 5.31953 0.0142152 -3.54017 3.1259e-05
346 1 17.1138 7.09068 1.82172 -3.54011 2.69729e-05
347 1 19.5984 3.89766 -3.60078 -3.54023 2.04569e-05
348 1 19.2435 5.67021 -1.79328 -3.54019 1.56995e-05
349 1 18.8891 7.4416 0.014216 -3.54019 1.76585e-05
350 1 18.535 9.21172 1.82172 -3.54021 2.43031e-05
351 1 21.0177 6.02109 -3.60078 -3.54022 9.97627e-06
352 1 20.6642 7.79246 -1.79328 -3.54023 1.1424e-05
353 1 20.3113 9.56276 0.0142161 -3.54022 1.34267e-05
354 1 19.9591 11.3319 1.82172 -3.54018 1.39482e-05
355 1 22.4394 8.14352 -3.60078 -3.54023 5.74923e-06
356 1 22.0873 9.91398 -1.79328 -3.54021 6.10005e-06
357 1 21.7357 11.6836 0.0142163 -3.54016 9.74606e-06
358 1 21.3844 13.4527 1.82172 -3.54012 1.96208e-05
359 1 23.8626 10.2657 -3.60078 -3.54019 4.20537e-06
360 1 23.5111 12.036 -1.79328 -3.54016 9.80038e-06
361 1 23.1596 13.806 0.0142164 -3.54014 1.79435e-05
362 1 22.8077 15.576 1.82172 -3.54013 2.37298e-05
363 1 25.2855 12.3889 -3.60078 -3.54017 9.56118e-06
364 1 24.9335 14.1597 -1.79328 -3.54016 1.40739e-05
365 1 24.581 15.9307 0.0142165 -3.54016 1.58493e-05
366 1 24.2279 17.7018 1.82172 -3.54017 1.44268e-05
367 1 26.7065 14.5139 -3.60078 -3.54018 1.00022e-05
368 1 26.3535 16.2855 -1.79328 -3.54018 9.99962e-06
369 1 25.9997 18.0574 0.0142166 -3.54018 8.66634e-06
370 1 28.1253 16.6405 -3.60078 -3.54019 6.06151e-06
371 1 27.7712 18.4129 -1.79328 -3.54019 5.06557e-06
372 1 3.6052 -17.6605 1.82171 -3.54176 0.0683195
373 1 5.38719 -17.3633 0.0142139 -3.54414 0.0118838
374 1 5.08224 -15.5978 1.82171 -3.53548 0.00814817
375 1 7.18572 -17.0428 -1.79329 -3.54012 0.00209866
376 1 6.87102 -15.2757 0.014214 -3.53852 0.00431674
377 1 6.55008 -13.5036 1.82171 -3.53703 0.00601341
378 1 8.97607 -16.7026 -3.60079 -3.53917 0.00149868
379 1 8.64754 -14.933 -1.79329 -3.53931 0.00245068
380 1 8.3122 -13.1547 0.014214 -3.53967 0.00122874
381 1 7.96563 -11.3723 1.82171 -3.54005 0.00022611
382 1 10.4183 -14.58 -3.60079 -3.53991 0.000855906
383 1 10.0745 -12.8019 -1.79329 -3.54044 0.00030013
384 1 9.72627 -11.0207 0.0142141 -3.54048 5.05879e-05
385 1 9.37553 -9.24037 1.82171 -3.54014 1.30111e-05
386 1 11.8396 -12.4469 -3.60079 -3.54046 0.000127244
387 1 11.4901 -10.668 -1.79329 -3.54039 5.38638e-05
388 1 11.1394 -8.88846 0.0142147 -3.54011 2.7116e-05
389 1 10.7868 -7.10888 1.82171 -3.53998 4.1731e-05
390 1 13.2556 -10.3134 -3.60079 -3.54028 5.78839e-05
391 1 12.9036 -8.53468 -1.79329 -3.54017 4.12844e-05
392 1 12.5498 -6.75509 0.0142148 -3.54012 2.55979e-05
393 1 12.1937 -4.97518 1.82171 -3.54022 1.46683e-05
394 1 14.6685 -8.17934 -3.60079 -3.54022 3.49365e-05
395 1 14.3136 -6.40046 -1.79329 -3.54022 1.96228e-05
396 1 13.9572 -4.62112 0.0142149 -3.54022 1.06831e-05
397 1 13.5995 -2.84193 1.82171 -3.54018 8.9193e-06
398 1 16.0786 -6.04514 -3.60078 -3.54024 1.70222e-05
399 1 15.722 -4.26663 -1.79328 -3.54021 1.09347e-05
400 1 15.3642 -2.48796 0.014215 -3.54018 9.70505e-06
401 1 15.0051 -0.709497 1.82172 -3.54019 2.03743e-05
402 1 17.4879 -3.91176 -3.60078 -3.54023 1.25261e-05
403 1 17.1302 -2.13388 -1.79328 -3.54023 1.57906e-05
404 1 16.7716 -0.356182 0.0142152 -3.54026 3.26659e-05
405 1 16.4126 1.42069 1.82172 -3.54031 6.61061e-05
406 1 18.8977 -1.7799 -3.60078 -3.54027 2.25942e-05
407 1 18.54 -0.00332156 -1.79328 -3.5403 3.62146e-05
408 1 18.1825 1.77241 0.0142153 -3.5403 4.6966e-05
409 1 17.8256 3.54679 1.82172 -3.54025 4.31178e-05
410 1 20.3101 0.349286 -3.60078 -3.54029 2.91562e-05
411 1 19.9539 2.12397 -1.79328 -3.54027 2.7545e-05
412 1 19.5984 3.89766 0.0142161 -3.54023 2.04569e-05
413 1 19.2435 5.67021 1.82172 -3.54019 1.56995e-05
414 1 21.7263 2.47567 -3.60078 -3.54025 1.59994e-05
415 1 21.3717 4.24879 -1.79328 -3.54023 1.1619e-05
416 1 21.0177 6.02109 0.0142162 -3.54022 9.97627e-06
417 1 20.6642 7.79246 1.82172 -3.54023 1.1424e-05
418 1 23.1454 4.60024 -3.60078 -3.54024 7.46866e-06
419 1 22.7921 6.37224 -1.79328 -3.54024 6.19654e-06
420 1 22.4394 8.14352 0.0142163 -3.54023 5.74923e-06
421 1 22.0873 9.91398 1.82172 -3.54021 6.10005e-06
422 1 24.5666 6.72379 -3.60078 -3.54024 3.17198e-06
423 1 24.2144 8.49501 -1.79328 -3.54022 2.55015e-06
424 1 23.8626 10.2657 0.0142164 -3.54019 4.20537e-06
425 1 23.5111 12.036 1.82172 -3.54016 9.80038e-06
426 1 25.989 8.84708 -3.60078 -3.54021 2.00771e-06
427 1 25.6372 10.6181 -1.79328 -3.54019 4.76844e-06
428 1 25.2855 12.3889 0.0142166 -3.54017 9.56118e-06
429 1 24.9335 14.1597 1.82172 -3.54016 1.40739e-05
430 1 27.4112 10.9711 -3.60078 -3.54019 5.31442e-06
431 1 27.059 12.7424 -1.79328 -3.54018 8.24752e-06
432 1 26.7065 14.5139 0.0142167 -3.54018 1.00022e-05
433 1 26.3535 16.2855 1.82172 -3.54018 9.99962e-06
434 1 28.8319 13.0964 -3.60078 -3.54019 6.40008e-06
435 1 28.4789 14.8683 -1.79328 -3.54019 6.63121e-06
436 1 28.1253 16.6405 0.0142168 -3.54019 6.06151e-06
437 1 27.7712 18.4129 1.82172 -3.54019 5.06557e-06
438 1 30.2507 15.223 -3.60078 -3.5402 4.14221e-06
439 1 29.8968 16.9956 -1.79328 -3.5402 3.58661e-06
440 1 31.6681 17.3507 -3.60078 -3.54021 2.16766e-06
441 1 7.18572 -17.0428 1.82171 -3.54012 0.00209866
442 1 8.97607 -16.7026 0.014214 -3.53917 0.00149868
443 1 8.64754 -14.933 1.82171 -3.53931 0.00245068
444 1 11.095 -18.1181 -3.60079 -3.53949 0.000399679
445 1 10.7576 -16.352 -1.79329 -3.53941 0.000947765
446 1 10.4183 -14.58 0.0142141 -3.53991 0.000855906
447 1 10.0745 -12.8019 1.82171 -3.54044 0.00030013
448 1 12.5335 -15.9963 -3.60079 -3.53982 0.000413044
449 1 12.1877 -14.2235 -1.79329 -3.54019 0.000261199
450 1 11.8396 -12.4469 0.0142148 -3.54046 0.000127244
451 1 11.4901 -10.668 1.82171 -3.54039 5.38638e-05
452 1 13.9573 -13.8659 -3.60079 -3.54025 9.48089e-05
453 1 13.6068 -12.0906 -1.79329 -3.54033 7.11336e-05
454 1 13.2556 -10.3134 0.0142149 -3.54028 5.78839e-05
455 1 12.9036 -8.53468 1.82171 -3.54017 4.12844e-05
456 1 15.375 -11.7333 -3.60078 -3.54025 4.3841e-05
457 1 15.0222 -9.95711 -1.79328 -3.54023 4.45178e-05
458 1 14.6685 -8.17934 0.014215 -3.54022 3.49365e-05
459 1 14.3136 -6.40046 1.82171 -3.54022 1.96228e-05
460 1 16.7894 -9.59994 -3.60078 -3.54023 2.75076e-05
461 1 16.4344 -7.82307 -1.79328 -3.54024 2.40184e-05
462 1 16.0786 -6.04514 0.0142151 -3.54024 1.70222e-05
463 1 15.722 -4.26663 1.82172 -3.54021 1.09347e-05
464 1 18.2014 -7.46635 -3.60078 -3.54024 1.52992e-05
465 1 17.845 -5.68937 -1.79328 -3.54024 1.40131e-05
466 1 17.4879 -3.91176 0.0142152 -3.54023 1.25261e-05
467 1 17.1302 -2.13388 1.82172 -3.54023 1.57906e-05
468 1 19.6125 -5.3334 -3.60078 -3.54024 1.1625e-05
469 1 19.2552 -3.55675 -1.79328 -3.54025 1.48289e-05
470 1 18.8977 -1.7799 0.014216 -3.54027 2.25942e-05
471 1 18.54 -0.00332156 1.82172 -3.5403 3.62146e-05
472 1 21.0239 -3.20185 -3.60078 -3.54027 1.64372e-05
473 1 20.6669 -1.42612 -1.79328 -3.54029 2.38025e-05
474 1 20.3101 0.349286 0.0142161 -3.54029 2.91562e-05
475 1 19.9539 2.12397 1.82172 -3.54027 2.7545e-05
476 1 22.4374 -1.0725 -3.60078 -3.54028 1.96985e-05
477 1 22.0815 0.701861 -1.79328 -3.54027 1.98427e-05
478 1 21.7263 2.47567 0.0142163 -3.54025 1.59994e-05
479 1 21.3717 4.24879 1.82172 -3.54023 1.1619e-05
480 1 23.8539 1.05454 -3.60078 -3.54026 1.27619e-05
481 1 23.4993 2.82764 -1.79328 -3.54025 9.93691e-06
482 1 23.1454 4.60024 0.0142164 -3.54024 7.46866e-06
483 1 22.7921 6.37224 1.82172 -3.54024 6.19654e-06
484 1 25.2728 3.1799 -3.60078 -3.54024 6.24059e-06
485 1 24.9194 4.95207 -1.79328 -3.54024 4.55369e-06
486 1 24.5666 6.72379 0.0142165 -3.54024 3.17198e-06
487 1 24.2144 8.49501 1.82172 -3.54022 2.55015e-06
488 1 26.6936 5.30429 -3.60078 -3.54024 2.41025e-06
489 1 26.3411 7.07583 -1.79328 -3.54023 1.57509e-06
490 1 25.989 8.84708 0.0142166 -3.54021 2.00771e-06
491 1 25.6372 10.6181 1.82172 -3.54019 4.76844e-06
492 1 28.1153 7.42841 -3.60078 -3.54021 1.2999e-06
493 1 27.7632 9.19976 -1.79328 -3.5402 2.63689e-06
494 1 27.4112 10.9711 0.0142168 -3.54019 5.31442e-06
495 1 27.059 12.7424 1.82172 -3.54018 8.24752e-06
496 1 29.5369 9.55301 -3.60078 -3.5402 3.25931e-06
497 1 29.1845 11.3246 -1.79328 -3.54019 5.14787e-06
498 1 28.8319 13.0964 0.0142169 -3.54019 6.40008e-06
499 1 28.4789 14.8683 1.82172 -3.54019 6.63121e-06
500 1 30.9573 11.6786 -3.60078 -3.5402 4.36459e-06
501 1 30.6042 13.4507 -1.79328 -3.5402 4.49158e-06
502 1 30.2507 15.223 0.014217 -3.5402 4.14221e-06
503 1 29.8968 16.9956 1.82172 -3.5402 3.58661e-06
504 1 32.3762 13.8053 -3.60078 -3.5402 2.81724e-06
505 1 32.0224 15.5779 -1.79328 -3.5402 2.52226e-06
506 1 31.6681 17.3507 0.0142171 -3.54021 2.16766e-06
507 1 33.7938 15.9328 -3.60078 -3.54021 1.70865e-06
508 1 33.4393 17.7057 -1.79328 -3.54022 1.39037e-06
509 1 35.2104 18.0608 -3.60078 -3.54023 8.16433e-07
510 1 11.095 -18.1181 0.0142147 -3.53949 0.000399679
511 1 10.7576 -16.352 1.82171 -3.53941 0.000947765
512 1 12.8771 -17.7647 -1.79329 -3.53967 0.000349763
513 1 12.5335 -15.9963 0.0142148 -3.53982 0.000413044
514 1 12.1877 -14.2235 1.82171 -3.54019 0.000261199
515 1 14.6548 -17.4084 -3.60079 -3.5399 0.000197745
516 1 14.3068 -15.6386 -1.79329 -3.54007 0.000156265
517 1 13.9573 -13.8659 0.0142149 -3.54025 9.48089e-05
518 1 13.6068 -12.0906 1.82171 -3.54033 7.11336e-05
519 1 16.0791 -15.2803 -3.60078 -3.54017 6.27587e-05
520 1 15.7274 -13.5078 -1.79328 -3.54023 4.49623e-05
521 1 15.375 -11.7333 0.014215 -3.54025 4.3841e-05
522 1 15.0222 -9.95711 1.82172 -3.54023 4.45178e-05
523 1 17.4976 -13.1494 -3.60078 -3.54021 2.47714e-05
524 1 17.1438 -11.3754 -1.79328 -3.54022 2.62631e-05
525 1 16.7894 -9.59994 0.0142152 -3.54023 2.75076e-05
526 1 16.4344 -7.82307 1.82172 -3.54024 2.40184e-05
527 1 18.9128 -11.0174 -3.60078 -3.54021 1.42009e-05
528 1 18.5574 -9.24242 -1.79328 -3.54023 1.51481e-05
529 1 18.2014 -7.46635 0.0142153 -3.54024 1.52992e-05
530 1 17.845 -5.68937 1.82172 -3.54024 1.40131e-05
531 1 20.3259 -8.88491 -3.60078 -3.54023 7.91281e-06
532 1 19.9693 -7.10952 -1.79328 -3.54024 9.65371e-06
533 1 19.6125 -5.3334 0.0142161 -3.54024 1.1625e-05
534 1 19.2552 -3.55675 1.82172 -3.54025 1.48289e-05
535 1 21.7381 -6.75285 -3.60078 -3.54024 6.77893e-06
536 1 21.3811 -4.97752 -1.79328 -3.54025 1.06673e-05
537 1 21.0239 -3.20185 0.0142162 -3.54027 1.64372e-05
538 1 20.6669 -1.42612 1.82172 -3.54029 2.38025e-05
539 1 23.1508 -4.62192 -3.60078 -3.54026 1.02984e-05
540 1 22.7939 -2.84718 -1.79328 -3.54027 1.56132e-05
541 1 22.4374 -1.0725 0.0142163 -3.54028 1.96985e-05
542 1 22.0815 0.701861 1.82172 -3.54027 1.98427e-05
543 1 24.565 -2.49275 -3.60078 -3.54026 1.27658e-05
544 1 24.2091 -0.718966 -1.79328 -3.54027 1.41089e-05
545 1 23.8539 1.05454 0.0142164 -3.54026 1.27619e-05
546 1 23.4993 2.82764 1.82172 -3.54025 9.93691e-06
547 1 25.9816 -0.365468 -3.60078 -3.54025 9.37039e-06
548 1 25.6269 1.40737 -1.79328 -3.54025 8.0518e-06
549 1 25.2728 3.1799 0.0142166 -3.54024 6.24059e-06
550 1 24.9194 4.95207 1.82172 -3.54024 4.55369e-06
551 1 27.4003 1.76036 -3.60078 -3.54024 4.82714e-06
552 1 27.0467 3.53246 -1.79328 -3.54024 3.60083e-06
553 1 26.6936 5.30429 0.0142167 -3.54024 2.41025e-06
554 1 26.3411 7.07583 1.82172 -3.54023 1.57509e-06
555 1 28.8206 3.88532 -3.60078 -3.54023 1.84413e-06
556 1 28.4677 5.65694 -1.79328 -3.54022 1.26253e-06
557 1 28.1153 7.42841 0.0142168 -3.54021 1.2999e-06
558 1 27.7632 9.19976 1.82172 -3.5402 2.63689e-06
559 1 30.2418 6.01002 -3.60078 -3.54021 9.15988e-07
560 1 29.8892 7.7815 -1.79328 -3.54021 1.63959e-06
561 1 29.5369 9.55301 0.0142169 -3.5402 3.25931e-06
562 1 29.1845 11.3246 1.82172 -3.54019 5.14787e-06
563 1 31.6628 8.13505 -3.60078 -3.54021 2.08031e-06
564 1 31.3101 9.90674 -1.79328 -3.5402 3.48127e-06
565 1 30.9573 11.6786 0.014217 -3.5402 4.36459e-06
566 1 30.6042 13.4507 1.82172 -3.5402 4.49158e-06
567 1 33.083 10.2609 -3.60078 -3.54021 3.20787e-06
568 1 32.7297 12.033 -1.79328 -3.5402 3.14863e-06
569 1 32.3762 13.8053 0.0142171 -3.5402 2.81724e-06
570 1 32.0224 15.5779 1.82172 -3.5402 2.52226e-06
571 1 34.5019 12.3876 -3.60078 -3.5402 1.7829e-06
572 1 34.148 14.1601 -1.79328 -3.5402 1.67457e-06
573 1 33.7938 15.9328 0.0142172 -3.54021 1.70865e-06
574 1 33.4393 17.7057 1.82172 -3.54022 1.39037e-06
575 1 35.9197 14.515 -3.60078 -3.54021 1.33828e-06
576 1 35.5653 16.2878 -1.79328 -3.54022 1.47664e-06
577 1 35.2104 18.0608 0.0142172 -3.54023 8.16433e-07
578 1 37.3367 16.6427 -3.60078 -3.54024 1.31795e-06