LAMMPS data file via write_data, version 29 Aug 2024, timestep = 1065, units = metal

14624 atoms
2 atom types

-100.1 100.1 xlo xhi
-29.8100853 29.8100853 ylo yhi
-7.23 7.23 zlo zhi
0 0 0 xy xz yz

Masses

1 63.55
2 63.55

Atoms # atomic

1 1 0.6742393976120411 28.21225769781761 -6.77972305797121 0 0 0
2 1 0.30213709664903377 22.564361410311246 -6.779723057973175 0 0 0
3 1 1.3298895325673215 24.718758547836497 -6.779723057975673 0 0 0
4 1 0.9671703724971081 26.35165349566613 -4.972223057974122 0 0 0
5 1 0.67423939761116 28.212257697817275 -3.1647230579725485 0 0 0
6 1 2.76004354253422 26.805781638225017 -6.779723057975882 0 0 0
7 1 2.3640350148200184 28.56837882406121 -4.972223057971806 0 0 0
8 1 4.062317767270514 29.007432912298317 -6.7797230579694645 0 0 0
9 1 0.8152677690818706 18.69674717762663 -6.779723057970718 0 0 0
10 1 0.6498106118337006 20.734750508036168 -4.972223057970814 0 0 0
11 1 0.30213709664495525 22.564361410307743 -3.1647230579732035 0 0 0
12 1 2.2883226067948357 20.997103539359916 -6.779723057972293 0 0 0
13 1 1.8785831558743524 22.941856359882262 -4.9722230579767475 0 0 0
14 1 1.3298895325680604 24.718758547838913 -3.1647230579755874 0 0 0
15 1 0.9671703724972645 26.351653495665754 -1.357223057974649 0 0 0
16 1 0.6742393976121122 28.21225769781766 0.45027694202858354 0 0 0
17 1 3.554768010177156 23.26066772459281 -6.77972305797554 0 0 0
18 1 3.1643684581003413 25.062383413204966 -4.972223057977341 0 0 0
19 1 2.7600435425340777 26.805781638224307 -3.164723057975952 0 0 0
20 1 2.3640350148204448 28.568378824061465 -1.357223057971204 0 0 0
21 1 4.913450338843674 25.43189496526274 -6.779723057974355 0 0 0
22 1 4.508691457579673 27.217729566047037 -4.972223057972667 0 0 0
23 1 4.0623177672707556 29.007432912298537 -3.164723057969312 0 0 0
24 1 6.2339041252335505 27.627384034751454 -6.779723057971291 0 0 0
25 1 5.802483296822032 29.409635818632974 -4.972223057968237 0 0 0
26 2 0.8623698657089705 11.183275825115235 -4.972223057963493 0 0 0
27 2 -0.3501346524605964 15.136784698839836 -3.164723057977311 0 0 0
28 1 1.9793718546886083 15.275691833286647 -6.7797230579629195 0 0 0
29 1 0.7946096904987741 16.802380895711938 -4.972223057971528 0 0 0
30 1 0.815267769081828 18.696747177626843 -3.1647230579707455 0 0 0
31 1 0.6498106118335869 20.73475050803614 -1.3572230579731415 0 0 0
32 1 0.30213709664890587 22.564361410311104 0.45027694202682406 0 0 0
33 1 3.017245110276292 17.479554099885203 -6.779723057968685 0 0 0
34 1 2.5832020899714507 19.157728442069352 -4.972223057970698 0 0 0
35 1 2.2883226067942672 20.997103539359582 -3.164723057972335 0 0 0
36 1 1.8785831558744377 22.94185635988232 -1.3572230579749316 0 0 0
37 1 1.3298895325673499 24.718758547836654 0.450276942024355 0 0 0
38 1 0.9671703724973071 26.35165349566591 2.257776942025864 0 0 0
39 1 0.6742393976112453 28.212257697817282 4.065276942027733 0 0 0
40 1 4.396132054061397 19.651699845666553 -6.779723057969895 0 0 0
41 1 3.9647110292449526 21.43283524380946 -4.972223057973618 0 0 0
42 1 3.5547680101775114 23.260667724592917 -3.164723057975499 0 0 0
43 1 3.1643684581002987 25.062383413204923 -1.3572230579776206 0 0 0
44 1 2.7600435425341487 26.805781638225024 0.45027694202412216 0 0 0
45 1 2.3640350148201748 28.568378824061167 2.2577769420281903 0 0 0
46 1 5.714589740259427 21.872312285409475 -6.779723057971125 0 0 0
47 1 5.302568472858141 23.644950543533252 -4.9722230579745625 0 0 0
48 1 4.913450338843504 25.431894965262668 -3.1647230579743777 0 0 0
49 1 4.508691457579701 27.217729566047137 -1.357223057972599 0 0 0
50 1 4.062317767270471 29.00743291229831 0.4502769420305421 0 0 0
51 1 7.06468978876056 24.065172115136942 -6.779723057974819 0 0 0
52 1 6.6541383183231915 25.83914700555319 -4.972223057973385 0 0 0
53 1 6.233904125233536 27.627384034751532 -3.1647230579712415 0 0 0
54 1 5.802483296822032 29.40963581863284 -1.357223057968372 0 0 0
55 1 8.399476491574873 26.26383596386557 -6.779723057975377 0 0 0
56 1 7.975996947203072 28.03743755473236 -4.972223057972484 0 0 0
57 1 9.731567216719426 28.45456673685781 -6.779723057976782 0 0 0
58 2 -0.31982224847904206 7.697765819480704 -4.972223057964779 0 0 0
59 2 0.8126635402270637 9.326398742987823 -3.1647230579597574 0 0 0
60 2 0.8460405150145931 13.012891898342087 -3.164723057966244 0 0 0
61 2 0.8623698657088568 11.183275825115228 -1.3572230579632734 0 0 0
62 2 -0.35013465246385067 15.136784698841335 0.4502769420226292 0 0 0
63 1 2.740388077552737 11.579473906795894 -6.779723057958948 0 0 0
64 1 2.363438862254455 13.481031299696806 -4.9722230579627125 0 0 0
65 1 1.9793718546863346 15.275691833286235 -3.1647230579628496 0 0 0
66 1 0.7946096904987456 16.802380895711945 -1.357223057971606 0 0 0
67 1 0.8152677690818706 18.69674717762665 0.4502769420293108 0 0 0
68 1 0.6498106118336153 20.734750508036132 2.257776942029112 0 0 0
69 1 0.3021370966448558 22.564361410307665 4.065276942026791 0 0 0
70 1 4.054080698495085 13.885479730921457 -6.77972305796031 0 0 0
71 1 3.5683916087820364 15.746989185413124 -4.972223057964006 0 0 0
72 1 3.017245110276477 17.479554099885686 -3.1647230579687116 0 0 0
73 1 2.5832020899714507 19.157728442069352 -1.3572230579707392 0 0 0
74 1 2.2883226067948357 20.99710353935991 0.45027694202770857 0 0 0
75 1 1.8785831558744235 22.94185635988227 2.257776942023263 0 0 0
76 1 1.3298895325680746 24.718758547838984 4.065276942024376 0 0 0
77 1 0.967170372497236 26.351653495665825 5.8727769420252995 0 0 0
78 1 5.276824449194777 16.157333687817154 -6.779723057962448 0 0 0
79 1 4.830043262530182 17.92284186876982 -4.972223057966314 0 0 0
80 1 4.396132054061397 19.651699845666425 -3.1647230579698804 0 0 0
81 1 3.9647110292449526 21.432835243809475 -1.3572230579734834 0 0 0
82 1 3.554768010177156 23.260667724592803 0.45027694202447055 0 0 0
83 1 3.1643684581002987 25.06238341320498 2.2577769420226534 0 0 0
84 1 2.760043542534035 26.805781638224328 4.065276942024037 0 0 0
85 1 2.364035014820402 28.56837882406148 5.872776942028686 0 0 0
86 1 6.596826204175812 18.352538599575656 -6.779723057964748 0 0 0
87 1 6.156384946019557 20.11259053047345 -4.9722230579674696 0 0 0
88 1 5.714589740259441 21.872312285409496 -3.164723057971152 0 0 0
89 1 5.302568472858141 23.644950543533252 -1.3572230579746363 0 0 0
90 1 4.9134503388437025 25.43189496526274 0.45027694202564084 0 0 0
91 1 4.508691457579673 27.217729566047066 2.2577769420273426 0 0 0
92 1 4.062317767270741 29.007432912298537 4.065276942030688 0 0 0
93 1 7.915440942204043 20.55062952723944 -6.779723057968147 0 0 0
94 1 7.483489145672053 22.306364229557456 -4.97222305797447 0 0 0
95 1 7.064689788760603 24.065172115136928 -3.164723057974829 0 0 0
96 1 6.6541383183231915 25.839147005553198 -1.3572230579733062 0 0 0
97 1 6.2339041252335505 27.62738403475146 0.45027694202870716 0 0 0
98 1 5.802483296822032 29.409635818632967 2.257776942031756 0 0 0
99 1 9.24962082011271 22.739795752460918 -6.779723057976231 0 0 0
100 1 8.824176755481517 24.497422422072955 -4.972223057978031 0 0 0
101 1 8.399476491574902 26.263835963865578 -3.164723057975378 0 0 0
102 1 7.975996947203072 28.03743755473236 -1.3572230579724833 0 0 0
103 1 10.582273885029736 24.931769572779476 -6.779723057980507 0 0 0
104 1 10.154305723278739 26.69177701196679 -4.972223057977451 0 0 0
105 1 9.731567216719426 28.454566736857767 -3.164723057976817 0 0 0
106 1 11.914868594583169 27.12124535634454 -6.77972305798155 0 0 0
107 1 11.491847984859334 28.878387632642468 -4.972223057979259 0 0 0
108 1 13.25309695067098 29.306838777247773 -6.779723057984566 0 0 0
109 2 0.8675054575809753 5.555068721082083 -4.972223057951303 0 0 0
110 2 0.880302753805978 3.727005407780002 -3.1647230579479317 0 0 0
111 2 -0.3198222484788289 7.697765819480313 -1.3572230579648248 0 0 0
112 1 2.39623409709408 5.9971515019930415 -6.779723057949018 0 0 0
113 1 2.0139638476719597 7.78854012231503 -4.972223057947857 0 0 0
114 2 0.8126635402271063 9.326398742987823 0.4502769420402611 0 0 0
115 2 0.8460405150154742 13.012891898340722 0.4502769420338909 0 0 0
116 2 0.8623698657088568 11.183275825115235 2.2577769420365157 0 0 0
117 2 -0.35013465246213116 15.136784698839723 4.065276942022708 0 0 0
118 1 3.622925136761239 8.244004792620768 -6.779723057950239 0 0 0
119 1 3.0962766694073878 9.952459468889675 -4.972223057956006 0 0 0
120 1 2.7403880775533622 11.579473906795396 -3.1647230579590175 0 0 0
121 1 2.3634388622546396 13.481031299696898 -1.3572230579624145 0 0 0
122 1 1.979371854688921 15.275691833286768 0.45027694203717394 0 0 0
123 1 0.7946096904987741 16.802380895712 2.2577769420284297 0 0 0
124 1 0.8152677690817853 18.69674717762687 4.065276942029242 0 0 0
125 1 0.6498106118335727 20.734750508036118 5.872776942026801 0 0 0
126 1 4.939029638936049 10.393509023914387 -6.779723057955321 0 0 0
127 1 4.485746756532663 12.126872072728158 -4.9722230579574465 0 0 0
128 1 4.054080698495568 13.885479730921194 -3.16472305796012 0 0 0
129 1 3.5683916087819654 15.746989185413025 -1.3572230579631963 0 0 0
130 1 3.017245110276292 17.479554099885103 0.4502769420312597 0 0 0
131 1 2.5832020899714365 19.157728442069395 2.2577769420292597 0 0 0
132 1 2.28832260679431 20.997103539359582 4.0652769420276895 0 0 0
133 1 1.8785831558744377 22.941856359882326 5.872776942025133 0 0 0
134 1 6.230421346788262 12.606579545069504 -6.779723057956683 0 0 0
135 1 5.748725163730555 14.380865081398472 -4.9722230579585105 0 0 0
136 1 5.276824449194805 16.157333687817175 -3.1647230579625636 0 0 0
137 1 4.830043262530211 17.922841868769854 -1.3572230579663114 0 0 0
138 1 4.396132054061397 19.65169984566656 0.4502769420301263 0 0 0
139 1 3.964711029244924 21.432835243809446 2.257776942026389 0 0 0
140 1 3.5547680101775114 23.260667724592903 4.06527694202449 0 0 0
141 1 3.1643684581002987 25.062383413204923 5.872776942022381 0 0 0
142 1 7.488739632914843 14.836931698866461 -6.779723057957144 0 0 0
143 1 7.033480862652695 16.59571040105956 -4.972223057961529 0 0 0
144 1 6.596826204175812 18.352538599575656 -3.164723057964727 0 0 0
145 1 6.156384946019557 20.112590530473437 -1.3572230579674769 0 0 0
146 1 5.714589740259427 21.872312285409482 0.4502769420288693 0 0 0
147 1 5.302568472858184 23.644950543533252 2.2577769420254468 0 0 0
148 1 4.913450338843518 25.431894965262682 4.065276942025625 0 0 0
149 1 4.508691457579701 27.217729566047108 5.872776942027405 0 0 0
150 1 8.795881869293183 17.03726803173524 -6.779723057961118 0 0 0
151 1 8.354445170461645 18.79307483809195 -4.972223057964159 0 0 0
152 1 7.915440942204015 20.55062952723947 -3.164723057968164 0 0 0
153 1 7.4834891456720385 22.306364229557435 -1.3572230579745013 0 0 0
154 1 7.06468978876056 24.065172115136942 0.4502769420251753 0 0 0
155 1 6.6541383183231915 25.839147005553183 2.2577769420266156 0 0 0
156 1 6.233904125233536 27.627384034751525 4.065276942028755 0 0 0
157 1 5.802483296822032 29.40963581863284 5.8727769420316305 0 0 0
158 1 10.115053367191692 19.23252995474108 -6.779723057967065 0 0 0
159 1 9.679180895814468 20.98593474385569 -4.972223057971535 0 0 0
160 1 9.24962082011271 22.73979575246094 -3.1647230579762216 0 0 0
161 1 8.824176755481474 24.497422422072955 -1.357223057978037 0 0 0
162 1 8.399476491574873 26.263835963865564 0.45027694202462304 0 0 0
163 1 7.975996947203072 28.03743755473236 2.2577769420275144 0 0 0
164 1 11.443372711637778 21.422350802490595 -6.779723057974774 0 0 0
165 1 11.012093872991983 23.175422847679098 -4.972223057977746 0 0 0
166 1 10.582273885029736 24.931769572779483 -3.164723057980498 0 0 0
167 1 10.154305723278767 26.69177701196679 -1.357223057977468 0 0 0
168 1 9.731567216719426 28.45456673685781 0.45027694202321994 0 0 0
169 1 12.773581274018554 23.611939656083248 -6.77972305798235 0 0 0
170 1 12.342592645919538 25.365820946766906 -4.9722230579818705 0 0 0
171 1 11.914868594583183 27.12124535634457 -3.1647230579815417 0 0 0
172 1 11.491847984859362 28.878387632642454 -1.3572230579792637 0 0 0
173 1 14.10499939478629 25.8000337937755 -6.779723057987794 0 0 0
174 1 13.677398824963362 27.552650626441785 -4.9722230579861915 0 0 0
175 1 13.253096950671022 29.306838777247815 -3.1647230579845598 0 0 0
176 1 15.440194815619364 27.98591479570454 -6.779723057991143 0 0 0
177 2 0.8979688254817688 -3.726982202623379 -4.972223057953992 0 0 0
178 2 -0.3023930332005591 0.24760680667768042 -3.1647230579649324 0 0 0
179 1 2.0319739935551127 0.33144431766951854 -6.779723057933799 0 0 0
180 2 0.8311510553261883 1.872153302753567 -4.972223057947268 0 0 0
181 2 0.8675054575804353 5.555068721082204 -1.3572230579513147 0 0 0
182 2 0.8803027538058927 3.727005407780023 0.4502769420520751 0 0 0
183 2 -0.319822248478431 7.69776581948042 2.2577769420352234 0 0 0
184 1 3.118284277941086 2.4907152135436057 -6.779723057936474 0 0 0
185 1 2.7615484353415383 4.111780860887844 -4.972223057939758 0 0 0
186 1 2.3962340970940375 5.997151501993013 -3.1647230579491716 0 0 0
187 1 2.0139638476721586 7.788540122315137 -1.3572230579478206 0 0 0
188 2 0.8126635402270637 9.326398742987802 4.065276942040236 0 0 0
189 2 0.8460405150121204 13.012891898341888 4.065276942033775 0 0 0
190 2 0.8623698657088141 11.183275825115214 5.872776942036709 0 0 0
191 2 -0.35013465246355224 15.13678469884135 -6.779723057977235 0 0 1
192 1 4.520829539367114 4.651226217662117 -6.7797230579423875 0 0 0
193 1 4.094729963764024 6.400328237150578 -4.97222305794647 0 0 0
194 1 3.6229251367611965 8.244004792620775 -3.1647230579501415 0 0 0
195 1 3.0962766694073878 9.952459468889426 -1.3572230579561333 0 0 0
196 1 2.7403880775528933 11.579473906795773 0.450276942041136 0 0 0
197 1 2.3634388622549523 13.48103129969704 2.2577769420367404 0 0 0
198 1 1.9793718546880683 15.27569183328691 4.065276942037135 0 0 0
199 1 0.7946096904987456 16.802380895711973 5.872776942028447 0 0 0
200 1 5.80483599054044 6.889420233263852 -6.77972305794831 0 0 0
201 1 5.350881922350098 8.648563558350862 -4.972223057952452 0 0 0
202 1 4.939029638935892 10.393509023914486 -3.16472305795535 0 0 0
203 1 4.485746756532663 12.126872072728244 -1.357223057957587 0 0 0
204 1 4.054080698495042 13.8854797309215 0.4502769420398822 0 0 0
205 1 3.5683916087816954 15.74698918541294 2.2577769420362848 0 0 0
206 1 3.0172451102763347 17.47955409988516 4.065276942031296 0 0 0
207 1 2.5832020899714365 19.157728442069367 5.872776942029319 0 0 0
208 1 7.117636035626873 9.091512138199061 -6.779723057952577 0 0 0
209 1 6.6818206840334256 10.846971013509165 -4.9722230579542375 0 0 0
210 1 6.230421346788191 12.606579545069533 -3.1647230579566625 0 0 0
211 1 5.748725163730555 14.38086508139845 -1.3572230579586264 0 0 0
212 1 5.276824449194777 16.157333687817147 0.45027694203740026 0 0 0
213 1 4.830043262530253 17.92284186876992 2.2577769420336873 0 0 0
214 1 4.396132054061468 19.65169984566649 4.065276942030123 0 0 0
215 1 3.9647110292449526 21.432835243809468 5.8727769420265 0 0 0
216 1 8.419542328878165 11.30627097326332 -6.779723057955345 0 0 0
217 1 7.95706634659868 13.072990143812316 -4.972223057956836 0 0 0
218 1 7.488739632914843 14.836931698866461 -3.1647230579571546 0 0 0
219 1 7.033480862652723 16.595710401059588 -1.357223057961516 0 0 0
220 1 6.596826204175812 18.352538599575656 0.4502769420352619 0 0 0
221 1 6.156384946019557 20.11259053047343 2.2577769420325313 0 0 0
222 1 5.714589740259441 21.872312285409503 4.065276942028858 0 0 0
223 1 5.302568472858141 23.644950543533252 5.872776942025367 0 0 0
224 1 9.698339124344955 13.525150407013246 -6.779723057956935 0 0 0
225 1 9.24281292094959 15.28310083289082 -4.972223057956993 0 0 0
226 1 8.795881869293211 17.037268031735213 -3.164723057961116 0 0 0
227 1 8.354445170461645 18.79307483809195 -1.357223057964153 0 0 0
228 1 7.915440942204043 20.550629527239433 0.45027694203184243 0 0 0
229 1 7.48348914567201 22.30636422955747 2.2577769420255223 0 0 0
230 1 7.064689788760603 24.065172115136907 4.065276942025167 0 0 0
231 1 6.6541383183231915 25.839147005553198 5.872776942026696 0 0 0
232 1 11.000720377541882 15.726168016251886 -6.779723057958659 0 0 0
233 1 10.556105948948272 17.479316454467206 -4.972223057962509 0 0 0
234 1 10.115053367191692 19.232529954741064 -3.1647230579670675 0 0 0
235 1 9.679180895814468 20.985934743855697 -1.357223057971537 0 0 0
236 1 9.24962082011271 22.739795752460925 0.450276942023769 0 0 0
237 1 8.824176755481474 24.497422422072955 2.257776942021958 0 0 0
238 1 8.399476491574902 26.263835963865585 4.065276942024625 0 0 0
239 1 7.975996947203029 28.03743755473236 5.872776942027519 0 0 0
240 1 12.317094243445126 17.919849936998677 -6.77972305796545 0 0 0
241 1 11.878077897272618 19.67098481337774 -4.97222305797057 0 0 0
242 1 11.443372711637778 21.4223508024906 -3.164723057974769 0 0 0
243 1 11.012093872991983 23.175422847679098 -1.357223057977709 0 0 0
244 1 10.582273885029778 24.931769572779476 0.45027694201949064 0 0 0
245 1 10.154305723278739 26.691777011966803 2.2577769420225553 0 0 0
246 1 9.731567216719426 28.454566736857767 4.065276942023188 0 0 0
247 1 13.641426782968196 20.10939826880406 -6.779723057975455 0 0 0
248 1 13.206486493458698 21.859897525007877 -4.972223057978701 0 0 0
249 1 12.773581274018582 23.611939656083248 -3.164723057982346 0 0 0
250 1 12.342592645919538 25.3658209467669 -1.3572230579818716 0 0 0
251 1 11.914868594583169 27.121245356344534 0.45027694201844876 0 0 0
252 1 11.491847984859362 28.878387632642454 2.2577769420207363 0 0 0
253 1 14.96912662122132 22.297750279771716 -6.779723057983718 0 0 0
254 1 14.53582207376273 24.048426456574443 -4.97222305798748 0 0 0
255 1 14.10499939478629 25.80003379377551 -3.164723057987793 0 0 0
256 1 13.677398824963362 27.5526506264418 -1.3572230579861813 0 0 0
257 1 13.25309695067098 29.306838777247773 0.4502769420154306 0 0 0
258 1 16.29885815867661 24.484927303256963 -6.779723057990303 0 0 0
259 1 15.86822139882274 26.23496652937263 -4.972223057991345 0 0 0
260 1 15.440194815619364 27.98591479570454 -3.164723057991141 0 0 0
261 1 17.63139482354761 26.67077267023277 -6.779723057994905 0 0 0
262 1 17.202740669132865 28.420676839174984 -4.972223057995105 0 0 0
263 1 18.964748836783215 28.856696616227378 -6.77972305799919 0 0 0
264 2 -0.28948364014334516 -7.215086481652229 -4.972223057979638 0 0 0
265 2 0.8316091959499801 -5.58153419106322 -3.1647230579599928 0 0 0
266 2 0.8830157987621163 -1.8984525397593117 -3.1647230579495456 0 0 0
267 2 0.8979688254817972 -3.726982202623354 -1.3572230579539453 0 0 0
268 2 -0.3023930332013691 0.2476068066774353 0.4502769420350195 0 0 0
269 1 2.7816219300116387 -3.3359379626571624 -6.779723057940133 0 0 0
270 1 2.414348726616481 -1.4578697793992106 -4.972223057943778 0 0 0
271 1 2.0319739935540184 0.3314443176689146 -3.164723057933755 0 0 0
272 2 0.8311510553261883 1.8721533027535813 -1.3572230579473301 0 0 0
273 2 0.8675054575802648 5.555068721082375 2.2577769420487104 0 0 0
274 2 0.8803027538059354 3.7270054077799877 4.065276942052093 0 0 0
275 2 -0.3198222484786015 7.697765819480335 5.872776942035224 0 0 0
276 1 4.116802027966429 -1.051175003307712 -6.779723057939066 0 0 0
277 1 3.6445256288055816 0.7855223869774477 -4.972223057934132 0 0 0
278 1 3.1182842779411715 2.490715213544153 -3.1647230579364636 0 0 0
279 1 2.7615484353417656 4.1117808608876665 -1.357223057939906 0 0 0
280 1 2.3962340970941938 5.997151501993098 0.4502769420508678 0 0 0
281 1 2.0139638476714055 7.788540122314881 2.25777694205216 0 0 0
282 2 0.8126635402270637 9.32639874298783 -6.779723057959763 0 0 1
283 2 0.8460405150158294 13.012891898340744 -6.779723057965976 0 0 1
284 1 5.378004491487488 1.1912458736205949 -6.779723057935699 0 0 0
285 1 4.967371878859936 2.9284291000052356 -4.972223057937656 0 0 0
286 1 4.520829539367014 4.6512262176620744 -3.164723057942416 0 0 0
287 1 4.094729963763953 6.400328237150671 -1.3572230579464313 0 0 0
288 1 3.6229251367612676 8.244004792620768 0.45027694204949203 0 0 0
289 1 3.0962766694074304 9.952459468890059 2.2577769420441447 0 0 0
290 1 2.7403880775543854 11.579473906794437 4.06527694204097 0 0 0
291 1 2.363438862254995 13.481031299697097 5.8727769420383025 0 0 0
292 1 6.720403750203005 3.3796749332079195 -6.779723057939086 0 0 0
293 1 6.275602348461263 5.128890673265143 -4.97222305794403 0 0 0
294 1 5.804835990540468 6.889420233263873 -3.1647230579483563 0 0 0
295 1 5.350881922350013 8.64856355835084 -1.3572230579524 0 0 0
296 1 4.939029638936006 10.393509023914415 0.45027694204466945 0 0 0
297 1 4.485746756532507 12.126872072728087 2.257776942042586 0 0 0
298 1 4.054080698495369 13.885479730921428 4.0652769420398505 0 0 0
299 1 3.568391608781724 15.746989185412911 5.872776942036405 0 0 0
300 1 8.013304808066863 5.593915145746227 -6.779723057945339 0 0 0
301 1 7.557153485290939 7.345097444246154 -4.972223057948785 0 0 0
302 1 7.117636035626873 9.091512138199032 -3.164723057952593 0 0 0
303 1 6.681820684033454 10.846971013509187 -1.3572230579542397 0 0 0
304 1 6.2304213467883045 12.606579545069504 0.4502769420433113 0 0 0
305 1 5.748725163730597 14.380865081398465 2.2577769420414766 0 0 0
306 1 5.276824449194777 16.157333687817168 4.065276942037449 0 0 0
307 1 4.830043262530253 17.92284186876992 5.872776942033702 0 0 0
308 1 9.314790355777319 7.797601099133512 -6.779723057949282 0 0 0
309 1 8.869545470557483 9.54840901614909 -4.9722230579530216 0 0 0
310 1 8.419542328878208 11.30627097326332 -3.164723057955318 0 0 0
311 1 7.957066346598651 13.072990143812287 -1.3572230579568043 0 0 0
312 1 7.488739632914843 14.836931698866461 0.4502769420428634 0 0 0
313 1 7.033480862652695 16.59571040105956 2.2577769420384826 0 0 0
314 1 6.596826204175784 18.352538599575663 4.06527694203526 0 0 0
315 1 6.156384946019529 20.11259053047343 5.872776942032522 0 0 0
316 1 10.61487057818222 10.005942742807559 -6.779723057954765 0 0 0
317 1 10.15796807036756 11.764642266668584 -4.972223057956399 0 0 0
318 1 9.698339124344955 13.525150407013246 -3.164723057956929 0 0 0
319 1 9.242812920949603 15.283100832890806 -1.357223057956998 0 0 0
320 1 8.795881869293183 17.03726803173525 0.45027694203887725 0 0 0
321 1 8.354445170461645 18.793074838091957 2.2577769420358385 0 0 0
322 1 7.915440942204043 20.550629527239447 4.065276942031831 0 0 0
323 1 7.4834891456720385 22.306364229557456 5.8727769420254985 0 0 0
324 1 11.903972591277565 12.216596699806583 -6.779723057957865 0 0 0
325 1 11.449852430011589 13.972191687719803 -4.972223057958011 0 0 0
326 1 11.00072037754191 15.726168016251886 -3.1647230579586467 0 0 0
327 1 10.556105948948272 17.479316454467206 -1.357223057962506 0 0 0
328 1 10.115053367191692 19.23252995474108 0.4502769420329309 0 0 0
329 1 9.679180895814468 20.985934743855697 2.257776942028457 0 0 0
330 1 9.24962082011271 22.73979575246094 4.065276942023774 0 0 0
331 1 8.824176755481474 24.497422422072955 5.872776942021956 0 0 0
332 1 13.206069020546835 14.416658644668129 -6.779723057961662 0 0 0
333 1 12.759849241262941 16.168445702986457 -4.972223057962734 0 0 0
334 1 12.317094243445112 17.919849936998684 -3.1647230579654533 0 0 0
335 1 11.878077897272618 19.67098481337774 -1.3572230579705946 0 0 0
336 1 11.443372711637778 21.422350802490595 0.4502769420252299 0 0 0
337 1 11.012093872991983 23.175422847679098 2.257776942022247 0 0 0
338 1 10.582273885029736 24.931769572779498 4.065276942019504 0 0 0
339 1 10.154305723278767 26.69177701196679 5.872776942022533 0 0 0
340 1 14.520249132577092 16.60970986778022 -6.779723057969977 0 0 0
341 1 14.079219862554396 18.359565834188157 -4.972223057972624 0 0 0
342 1 13.641426782968196 20.10939826880406 -3.1647230579754453 0 0 0
343 1 13.206486493458698 21.85989752500789 -1.35722305797871 0 0 0
344 1 12.773581274018554 23.611939656083248 0.4502769420176653 0 0 0
345 1 12.342592645919538 25.365820946766906 2.2577769420181357 0 0 0
346 1 11.914868594583183 27.12124535634454 4.065276942018462 0 0 0
347 1 11.491847984859334 28.878387632642468 5.872776942020745 0 0 0
348 1 15.841733194801279 18.79896646891714 -6.779723057979125 0 0 0
349 1 15.404387608066813 20.548019571049874 -4.972223057980474 0 0 0
350 1 14.96912662122132 22.2977502797717 -3.1647230579837027 0 0 0
351 1 14.53582207376273 24.048426456574465 -1.3572230579874744 0 0 0
352 1 14.104999394786248 25.8000337937755 0.45027694201221186 0 0 0
353 1 13.677398824963362 27.552650626441785 2.2577769420138063 0 0 0
354 1 13.253096950671022 29.306838777247815 4.065276942015443 0 0 0
355 1 17.167120894533937 20.98659920922257 -6.779723057984709 0 0 0
356 1 16.731947382827883 22.735501427495617 -4.972223057987626 0 0 0
357 1 16.29885815867661 24.484927303256978 -3.164723057990305 0 0 0
358 1 15.86822139882274 26.23496652937261 -1.3572230579913378 0 0 0
359 1 15.440194815619364 27.98591479570454 0.45027694200885016 0 0 0
360 1 18.494970871860062 23.173155865954936 -6.779723057988458 0 0 0
361 1 18.062123927058337 24.92169742514614 -4.972223057991588 0 0 0
362 1 17.63139482354761 26.67077267023276 -3.164723057994897 0 0 0
363 1 17.202740669132893 28.42067683917499 -1.3572230579951097 0 0 0
364 1 19.825125626121135 25.358867044360554 -6.779723057994485 0 0 0
365 1 19.394104020946543 27.107401109732617 -4.97222305799712 0 0 0
366 1 18.964748836783215 28.856696616227378 -3.164723057999194 0 0 0
367 1 21.156084623431667 27.5447826215461 -6.77972305800242 0 0 0
368 1 20.725898304072842 29.29385079562803 -4.972223058003743 0 0 0
369 2 0.9001190713913161 -9.352130521766693 -4.972223057968174 0 0 0
370 2 0.9276777071601146 -11.18435017662497 -3.1647230579697165 0 0 0
371 2 -0.289483640143942 -7.2150864816520865 -1.3572230579793567 0 0 0
372 1 2.431754279394184 -8.889534785419173 -6.77972305795998 0 0 0
373 1 2.0446625392351194 -7.1066734123004345 -4.972223057951717 0 0 0
374 2 0.8316091959500085 -5.581534191063174 0.4502769420399946 0 0 0
375 2 0.8830157987600273 -1.8984525397594822 0.45027694205036856 0 0 0
376 2 0.8979688254816978 -3.726982202623379 2.2577769420460148 0 0 0
377 2 -0.30239303320126965 0.2476068066773749 4.065276942035093 0 0 0
378 1 3.6651615345162156 -6.6477512438479 -6.779723057947907 0 0 0
379 1 3.1419826461782776 -4.951445455668047 -4.972223057940472 0 0 0
380 1 2.7816219300110845 -3.3359379626566223 -3.164723057940139 0 0 0
381 1 2.414348726616481 -1.4578697793991822 -1.3572230579447528 0 0 0
382 1 2.0319739935551127 0.3314443176695292 0.45027694206628754 0 0 0
383 2 0.8311510553261883 1.8721533027535955 2.2577769420527045 0 0 0
384 2 0.86750545758062 5.555068721082275 5.872776942048688 0 0 0
385 2 0.8803027538059354 3.7270054077800374 -6.779723057947903 0 0 1
386 1 4.994540642682395 -4.507609696696882 -6.779723057941939 0 0 0
387 1 4.545605363795843 -2.793205640371589 -4.9722230579409965 0 0 0
388 1 4.1168020279665 -1.0511750033078542 -3.1647230579389807 0 0 0
389 1 3.6445256288055816 0.7855223869774477 -1.3572230579336932 0 0 0
390 1 3.118284277941086 2.490715213543684 0.45027694206351987 0 0 0
391 1 2.7615484353418793 4.111780860887588 2.2577769420601745 0 0 0
392 1 2.39623409709408 5.997151501993049 4.065276942051046 0 0 0
393 1 2.013963847671832 7.788540122314981 5.872776942052129 0 0 0
394 1 6.305259787325241 -2.311725399475989 -6.779723057941272 0 0 0
395 1 5.832604214847478 -0.5600773755857915 -4.972223057939424 0 0 0
396 1 5.378004491487559 1.1912458736205842 -3.164723057935705 0 0 0
397 1 4.967371878859922 2.928429100005207 -1.3572230579376996 0 0 0
398 1 4.520829539367043 4.651226217662124 0.4502769420576554 0 0 0
399 1 4.094729963764138 6.400328237150514 2.2577769420535185 0 0 0
400 1 3.6229251367613102 8.244004792620789 4.065276942049913 0 0 0
401 1 3.096276669407416 9.952459468889717 5.872776942043656 0 0 0
402 1 7.591448998366559 -0.1024803579984841 -6.779723057939595 0 0 0
403 1 7.152528537513419 1.6345416689033385 -4.972223057939206 0 0 0
404 1 6.720403750203033 3.3796749332079123 -3.164723057939064 0 0 0
405 1 6.2756023484613195 5.128890673265101 -1.3572230579440174 0 0 0
406 1 5.80483599054044 6.889420233263852 0.450276942051693 0 0 0
407 1 5.350881922350126 8.648563558350826 2.2577769420475495 0 0 0
408 1 4.939029638935537 10.393509023914628 4.0652769420446555 0 0 0
409 1 4.485746756532592 12.12687207272818 5.872776942042392 0 0 0
410 1 8.91307560694436 2.0914590470471275 -6.779723057941886 0 0 0
411 1 8.467725168147709 3.8388011633069503 -4.97222305794228 0 0 0
412 1 8.01330480806682 5.593915145746205 -3.1647230579453027 0 0 0
413 1 7.557153485290982 7.345097444246139 -1.3572230579487878 0 0 0
414 1 7.117636035626887 9.091512138199068 0.45027694204742913 0 0 0
415 1 6.681820684033497 10.846971013509172 2.257776942045726 0 0 0
416 1 6.230421346788262 12.606579545069533 4.06527694204334 0 0 0
417 1 5.748725163730583 14.380865081398436 5.872776942041398 0 0 0
418 1 10.214381437198796 4.297930984385882 -6.779723057943594 0 0 0
419 1 9.762180846877087 6.048357454405949 -4.972223057945288 0 0 0
420 1 9.314790355777319 7.797601099133505 -3.164723057949285 0 0 0
421 1 8.869545470557483 9.54840901614909 -1.3572230579530342 0 0 0
422 1 8.419542328878165 11.30627097326332 0.45027694204467106 0 0 0
423 1 7.957066346598651 13.072990143812294 2.2577769420431784 0 0 0
424 1 7.488739632914843 14.836931698866454 4.065276942042838 0 0 0
425 1 7.033480862652738 16.595710401059588 5.8727769420384766 0 0 0
426 1 11.51489508373784 6.501359771011277 -6.779723057947864 0 0 0
427 1 11.066132392847479 8.251884288276909 -4.972223057951909 0 0 0
428 1 10.61487057818222 10.00594274280753 -3.1647230579547663 0 0 0
429 1 10.15796807036756 11.764642266668577 -1.3572230579564086 0 0 0
430 1 9.698339124344955 13.52515040701324 0.45027694204305607 0 0 0
431 1 9.24281292094956 15.28310083289082 2.257776942043008 0 0 0
432 1 8.795881869293225 17.037268031735206 4.065276942038886 0 0 0
433 1 8.354445170461673 18.793074838091943 5.872776942035842 0 0 0
434 1 12.814349852873292 8.705870495237686 -6.7797230579529115 0 0 0
435 1 12.360018107087356 10.460488949491275 -4.972223057956281 0 0 0
436 1 11.903972591277565 12.216596699806583 -3.1647230579578616 0 0 0
437 1 11.449852430011589 13.97219168771981 -1.3572230579579956 0 0 0
438 1 11.00072037754191 15.726168016251872 0.45027694204135116 0 0 0