# LAMMPS data file Sigma = 17, inclination = 0.000000
#LAMMPS data file
14624 atoms
2 atom types
-100.1000000000 100.1000000000 xlo xhi
-29.8100853000 29.8100853000 ylo yhi
-7.2300000000 7.2300000000 zlo zhi
0.0 0.0 0.0 xy xz yz

Atoms # atomic

1 2 -0.0000007971 -29.3970222211 7.2300000000
2 2 0.0000005978 22.7791184585 -5.4225000000
3 2 0.8767669761 26.2932525183 -5.4225000000
4 2 1.3151501653 28.0512415947 -3.6150000000
5 2 1.3151501653 28.0512415947 0.0000000000
6 1 2.6302981385 26.3135356578 -5.4225000000
7 1 2.1919149493 28.0624713707 -3.6150000000
8 1 3.9454475066 28.5245531516 -5.4225000000
9 2 1.3151499660 20.6002077671 -5.4225000000
10 2 0.8767655812 -25.8749059258 7.2300000000
11 2 0.0000005978 22.7791184585 -1.8075000000
12 1 2.1919151486 20.6081878810 -5.4225000000
13 1 1.7535319595 22.3576791590 -3.6150000000
14 2 0.4383837870 24.5359487932 -3.6150000000
15 2 0.8767669761 26.2932525183 -1.8075000000
16 2 1.3151501653 28.0512415947 3.6150000000
17 1 3.5070645167 22.8136118666 -5.4225000000
18 1 3.0686813276 24.5638338973 -3.6150000000
19 1 2.6302981385 26.3135356578 -1.8075000000
20 1 2.1919149493 28.0624713707 0.0000000000
21 1 4.8222138849 25.0216052064 -5.4225000000
22 1 4.3838306958 26.7731856963 -3.6150000000
23 1 3.9454475066 28.5245531516 -1.8075000000
24 1 6.1373632530 27.2330402440 -5.4225000000
25 1 5.6989800639 28.9869721146 -3.6150000000
26 2 0.4383823920 -27.6351105428 5.4225000000
27 2 0.0000003986 15.3297704248 -3.6150000000
28 1 1.7535321587 14.9051177665 -5.4225000000
29 2 0.4383835877 17.0863391569 -5.4225000000
30 2 0.8767667768 18.8431255486 -3.6150000000
31 2 1.3151499660 20.6002077671 -1.8075000000
32 2 0.0000005978 22.7791184585 1.8075000000
33 1 3.0686815269 17.1079996296 -5.4225000000
34 1 2.6302983377 18.8582561333 -3.6150000000
35 1 2.1919151486 20.6081878810 -1.8075000000
36 1 1.7535319595 22.3576791590 0.0000000000
37 2 0.4383837870 24.5359487932 0.0000000000
38 2 0.8767669761 26.2932525183 1.8075000000
39 2 1.3151501653 28.0512415947 7.2300000000
40 1 4.3838308950 19.3121948398 -5.4225000000
41 1 3.9454477059 21.0630292127 -3.6150000000
42 1 3.5070645167 22.8136118666 -1.8075000000
43 1 3.0686813276 24.5638338973 0.0000000000
44 1 2.6302981385 26.3135356578 1.8075000000
45 1 2.1919149493 28.0624713707 3.6150000000
46 1 5.6989802632 21.5181172605 -5.4225000000
47 1 5.2605970740 23.2698971424 -3.6150000000
48 1 4.8222138849 25.0216052064 -1.8075000000
49 1 4.3838306958 26.7731856963 0.0000000000
50 1 3.9454475066 28.5245531516 1.8075000000
51 1 7.0141296313 23.7262515688 -5.4225000000
52 1 6.5757464422 25.4794994577 -3.6150000000
53 1 6.1373632530 27.2330402440 -1.8075000000
54 1 5.6989800639 28.9869721146 0.0000000000
55 1 8.3292789995 25.9371067923 -5.4225000000
56 1 7.8908958103 27.6925145424 -3.6150000000
57 1 9.6444283676 28.1510839180 -5.4225000000
58 2 0.0000001993 7.8786135200 -5.4225000000
59 2 0.8767665776 11.3916120863 -5.4225000000
60 2 1.3151497667 13.1482815943 -3.6150000000
61 2 1.3151497667 13.1482815943 0.0000000000
62 2 0.0000003986 15.3297704248 0.0000000000
63 1 2.6302985370 11.4045414986 -5.4225000000
64 1 2.1919153479 13.1549272482 -3.6150000000
65 1 1.7535321587 14.9051177665 -1.8075000000
66 2 0.4383835877 17.0863391569 -1.8075000000
67 2 0.8767667768 18.8431255486 0.0000000000
68 2 1.3151499660 20.6002077671 1.8075000000
69 2 0.0000005978 22.7791184585 5.4225000000
70 1 3.9454479052 13.6068366673 -5.4225000000
71 1 3.5070647160 15.3575044476 -3.6150000000
72 1 3.0686815269 17.1079996296 -1.8075000000
73 1 2.6302983377 18.8582561333 0.0000000000
74 1 2.1919151486 20.6081878810 1.8075000000
75 1 1.7535319595 22.3576791590 3.6150000000
76 2 0.4383837870 24.5359487932 3.6150000000
77 2 0.8767669761 26.2932525183 5.4225000000
78 1 5.2605972733 15.8100614950 -5.4225000000
79 1 4.8222140842 17.5611863786 -3.6150000000
80 1 4.3838308950 19.3121948398 -1.8075000000
81 1 3.9454477059 21.0630292127 0.0000000000
82 1 3.5070645167 22.8136118666 1.8075000000
83 1 3.0686813276 24.5638338973 3.6150000000
84 1 2.6302981385 26.3135356578 5.4225000000
85 1 2.1919149493 28.0624713707 7.2300000000
86 1 6.5757466415 18.0144874359 -5.4225000000
87 1 6.1373634523 19.7663044218 -3.6150000000
88 1 5.6989802632 21.5181172605 -1.8075000000
89 1 5.2605970740 23.2698971424 0.0000000000
90 1 4.8222138849 25.0216052064 1.8075000000
91 1 4.3838306958 26.7731856963 3.6150000000
92 1 3.9454475066 28.5245531516 5.4225000000
93 1 7.8908960096 20.2204171666 -5.4225000000
94 1 7.4525128205 21.9732366646 -3.6150000000
95 1 7.0141296313 23.7262515688 -1.8075000000
96 1 6.5757464422 25.4794994577 0.0000000000
97 1 6.1373632530 27.2330402440 1.8075000000
98 1 5.6989800639 28.9869721146 3.6150000000
99 1 9.2060453778 22.4281628801 -5.4225000000
100 1 8.7676621886 24.1823765464 -3.6150000000
101 1 8.3292789995 25.9371067923 -1.8075000000
102 1 7.8908958103 27.6925145424 0.0000000000
103 1 10.5211947459 24.6379936593 -5.4225000000
104 1 10.0828115568 26.3940510765 -3.6150000000
105 1 9.6444283676 28.1510839180 -1.8075000000
106 1 11.8363441141 26.8500382170 -5.4225000000
107 1 11.3979609249 28.6083656789 -3.6150000000
108 1 13.1514934822 29.0641481218 -5.4225000000
109 2 1.3151495674 5.6959878493 -5.4225000000
110 2 1.3151495674 5.6959878493 -1.8075000000
111 2 0.0000001993 7.8786135200 -1.8075000000
112 1 2.1919155472 5.7020657600 -5.4225000000
113 1 1.7535323580 7.4525563778 -3.6150000000
114 2 0.4383833884 9.6350700281 -3.6150000000
115 2 0.8767665776 11.3916120863 -1.8075000000
116 2 1.3151497667 13.1482815943 3.6150000000
117 2 0.0000003986 15.3297704248 3.6150000000
118 1 3.5070649153 7.9033869802 -5.4225000000
119 1 3.0686817262 9.6540133148 -3.6150000000
120 1 2.6302985370 11.4045414986 -1.8075000000
121 1 2.1919153479 13.1549272482 0.0000000000
122 1 1.7535321587 14.9051177665 1.8075000000
123 2 0.4383835877 17.0863391569 1.8075000000
124 2 0.8767667768 18.8431255486 3.6150000000
125 2 0.4383837870 24.5359487932 7.2300000000
126 1 4.8222142835 10.1051832554 -5.4225000000
127 1 4.3838310943 11.8560486491 -3.6150000000
128 1 3.9454479052 13.6068366673 -1.8075000000
129 1 3.5070647160 15.3575044476 0.0000000000
130 1 3.0686815269 17.1079996296 1.8075000000
131 1 2.6302983377 18.8582561333 3.6150000000
132 1 2.1919151486 20.6081878810 5.4225000000
133 1 1.7535319595 22.3576791590 7.2300000000
134 1 6.1373636516 12.3076321027 -5.4225000000
135 1 5.6989804625 14.0588647757 -3.6150000000
136 1 5.2605972733 15.8100614950 -1.8075000000
137 1 4.8222140842 17.5611863786 0.0000000000
138 1 4.3838308950 19.3121948398 1.8075000000
139 1 3.9454477059 21.0630292127 3.6150000000
140 1 3.5070645167 22.8136118666 5.4225000000
141 1 3.0686813276 24.5638338973 7.2300000000
142 1 7.4525130197 14.5109278931 -5.4225000000
143 1 7.0141298306 16.2626889666 -3.6150000000
144 1 6.5757466415 18.0144874359 -1.8075000000
145 1 6.1373634523 19.7663044218 0.0000000000
146 1 5.6989802632 21.5181172605 1.8075000000
147 1 5.2605970740 23.2698971424 3.6150000000
148 1 4.8222138849 25.0216052064 5.4225000000
149 1 4.3838306958 26.7731856963 7.2300000000
150 1 8.7676623879 16.7152786757 -5.4225000000
151 1 8.3292791988 18.4677693683 -3.6150000000
152 1 7.8908960096 20.2204171666 -1.8075000000
153 1 7.4525128205 21.9732366646 0.0000000000
154 1 7.0141296313 23.7262515688 1.8075000000
155 1 6.5757464422 25.4794994577 3.6150000000
156 1 6.1373632530 27.2330402440 5.4225000000
157 1 5.6989800639 28.9869721146 7.2300000000
158 1 10.0828117560 18.9208952186 -5.4225000000
159 1 9.6444285669 20.6743596798 -3.6150000000
160 1 9.2060453778 22.4281628801 -1.8075000000
161 1 8.7676621886 24.1823765464 0.0000000000
162 1 8.3292789995 25.9371067923 1.8075000000
163 1 7.8908958103 27.6925145424 3.6150000000
164 1 11.3979611242 21.1279670887 -5.4225000000
165 1 10.9595779351 22.8826841408 -3.6150000000
166 1 10.5211947459 24.6379936593 -1.8075000000
167 1 10.0828115568 26.3940510765 0.0000000000
168 1 9.6444283676 28.1510839180 1.8075000000
169 1 12.7131104923 23.3366205021 -5.4225000000
170 1 12.2747273032 25.0928744377 -3.6150000000
171 1 11.8363441141 26.8500382170 -1.8075000000
172 1 11.3979609249 28.6083656789 0.0000000000
173 1 14.0282598605 25.5468572277 -5.4225000000
174 1 13.5898766713 27.3048791604 -3.6150000000
175 1 13.1514934822 29.0641481218 -1.8075000000
176 1 15.3434092286 27.7584869092 -5.4225000000
177 2 -0.0000007971 -29.3970222211 3.6150000000
178 2 -0.0000000000 0.4264587545 -3.6150000000
179 1 1.7535325573 -0.0000050085 -5.4225000000
180 2 0.4383831891 2.1829669095 -5.4225000000
181 2 0.8767663783 3.9394658936 -3.6150000000
182 2 1.3151495674 5.6959878493 1.8075000000
183 2 0.0000001993 7.8786135200 1.8075000000
184 1 3.0686819254 2.2009134272 -5.4225000000
185 1 2.6302987363 3.9515065932 -3.6150000000
186 1 2.1919155472 5.7020657600 -1.8075000000
187 1 1.7535323580 7.4525563778 0.0000000000
188 2 0.4383833884 9.6350700281 0.0000000000
189 2 0.8767665776 11.3916120863 1.8075000000
190 2 0.8767667768 18.8431255486 7.2300000000
191 2 0.4383835877 17.0863391569 5.4225000000
192 1 4.3838312936 4.4019888400 -5.4225000000
193 1 3.9454481044 6.1527007700 -3.6150000000
194 1 3.5070649153 7.9033869802 -1.8075000000
195 1 3.0686817262 9.6540133148 0.0000000000
196 1 2.6302985370 11.4045414986 1.8075000000
197 1 2.1919153479 13.1549272482 3.6150000000
198 1 1.7535321587 14.9051177665 5.4225000000
199 2 1.3151499660 20.6002077671 5.4225000000
200 1 5.6989806617 6.6033610671 -5.4225000000
201 1 5.2605974726 8.3542767826 -3.6150000000
202 1 4.8222142835 10.1051832554 -1.8075000000
203 1 4.3838310943 11.8560486491 0.0000000000
204 1 3.9454479052 13.6068366673 1.8075000000
205 1 3.5070647160 15.3575044476 3.6150000000
206 1 3.0686815269 17.1079996296 5.4225000000
207 1 2.6302983377 18.8582561333 7.2300000000
208 1 7.0141300299 8.8051753557 -5.4225000000
209 1 6.5757468407 10.5563935464 -3.6150000000
210 1 6.1373636516 12.3076321027 -1.8075000000
211 1 5.6989804625 14.0588647757 0.0000000000
212 1 5.2605972733 15.8100614950 1.8075000000
213 1 4.8222140842 17.5611863786 3.6150000000
214 1 4.3838308950 19.3121948398 5.4225000000
215 1 3.9454477059 21.0630292127 7.2300000000
216 1 8.3292793980 11.0075830824 -5.4225000000
217 1 7.8908962089 12.7592208179 -3.6150000000
218 1 7.4525130197 14.5109278931 -1.8075000000
219 1 7.0141298306 16.2626889666 0.0000000000
220 1 6.5757466415 18.0144874359 1.8075000000
221 1 6.1373634523 19.7663044218 3.6150000000
222 1 5.6989802632 21.5181172605 5.4225000000
223 1 5.2605970740 23.2698971424 7.2300000000
224 1 9.6444287662 13.2107401087 -5.4225000000
225 1 9.2060455770 14.9629368098 -3.6150000000
226 1 8.7676623879 16.7152786757 -1.8075000000
227 1 8.3292791988 18.4677693683 0.0000000000
228 1 7.8908960096 20.2204171666 1.8075000000
229 1 7.4525128205 21.9732366646 3.6150000000
230 1 7.0141296313 23.7262515688 5.4225000000
231 1 6.5757464422 25.4794994577 7.2300000000
232 1 10.9595781343 15.4148011457 -5.4225000000
233 1 10.5211949452 17.1677203105 -3.6150000000
234 1 10.0828117560 18.9208952186 -1.8075000000
235 1 9.6444285669 20.6743596798 0.0000000000
236 1 9.2060453778 22.4281628801 1.8075000000
237 1 8.7676621886 24.1823765464 3.6150000000
238 1 8.3292789995 25.9371067923 5.4225000000
239 1 7.8908958103 27.6925145424 7.2300000000
240 1 12.2747275025 17.6199079755 -5.4225000000
241 1 11.8363443133 19.3737340084 -3.6150000000
242 1 11.3979611242 21.1279670887 -1.8075000000
243 1 10.9595779351 22.8826841408 0.0000000000
244 1 10.5211947459 24.6379936593 1.8075000000
245 1 10.0828115568 26.3940510765 3.6150000000
246 1 9.6444283676 28.1510839180 5.4225000000
247 1 13.5898768706 19.8261693098 -5.4225000000
248 1 13.1514936815 21.5810956375 -3.6150000000
249 1 12.7131104923 23.3366205021 -1.8075000000
250 1 12.2747273032 25.0928744377 0.0000000000
251 1 11.8363441141 26.8500382170 1.8075000000
252 1 11.3979609249 28.6083656789 3.6150000000
253 1 14.9050262388 22.0336313794 -5.4225000000
254 1 14.4666430496 23.7898359562 -3.6150000000
255 1 14.0282598605 25.5468572277 -1.8075000000
256 1 13.5898766713 27.3048791604 0.0000000000
257 1 13.1514934822 29.0641481218 1.8075000000
258 1 16.2201756069 24.2422422591 -5.4225000000
259 1 15.7817924178 25.9998496118 -3.6150000000
260 1 15.3434092286 27.7584869092 -1.8075000000
261 1 17.5353249751 26.4518198019 -5.4225000000
262 1 17.0969417859 28.2108566321 -3.6150000000
263 1 18.8504743432 28.6620399916 -5.4225000000
264 2 -0.0000001993 -7.0265092560 -5.4225000000
265 2 0.8767661790 -3.5131072869 -5.4225000000
266 2 1.3151493681 -1.7565321194 -3.6150000000
267 2 1.3151493681 -1.7565321194 0.0000000000
268 2 0.0000000000 0.4264587545 0.0000000000
269 1 2.6302989356 -3.5010901867 -5.4225000000
270 1 2.1919157464 -1.7505609900 -3.6150000000
271 1 1.7535325573 -0.0000050085 -1.8075000000
272 2 0.4383831891 2.1829669095 -1.8075000000
273 2 0.8767663783 3.9394658936 0.0000000000
274 2 0.0000001993 7.8786135200 5.4225000000
275 2 0.8767665776 11.3916120863 5.4225000000
276 1 3.9454483037 -1.3002457480 -5.4225000000
277 1 3.5070651146 0.4503187738 -3.6150000000
278 1 3.0686819254 2.2009134272 -1.8075000000
279 1 2.6302987363 3.9515065932 0.0000000000
280 1 2.1919155472 5.7020657600 1.8075000000
281 1 1.7535323580 7.4525563778 3.6150000000
282 2 0.4383833884 9.6350700281 3.6150000000
283 2 0.0000003986 15.3297704248 7.2300000000
284 1 5.2605976719 0.9006124519 -5.4225000000
285 1 4.8222144827 2.6512827054 -3.6150000000
286 1 4.3838312936 4.4019888400 -1.8075000000
287 1 3.9454481044 6.1527007700 0.0000000000
288 1 3.5070649153 7.9033869802 1.8075000000
289 1 3.0686817262 9.6540133148 3.6150000000
290 1 2.6302985370 11.4045414986 5.4225000000
291 1 2.1919153479 13.1549272482 7.2300000000
292 1 6.5757470400 3.1016160408 -5.4225000000
293 1 6.1373638509 4.8524650578 -3.6150000000
294 1 5.6989806617 6.6033610671 -1.8075000000
295 1 5.2605974726 8.3542767826 0.0000000000
296 1 4.8222142835 10.1051832554 1.8075000000
297 1 4.3838310943 11.8560486491 3.6150000000
298 1 3.9454479052 13.6068366673 5.4225000000
299 1 3.5070647160 15.3575044476 7.2300000000
300 1 7.8908964082 5.3028941769 -5.4225000000
301 1 7.4525132190 7.0540013869 -3.6150000000
302 1 7.0141300299 8.8051753557 -1.8075000000
303 1 6.5757468407 10.5563935464 0.0000000000
304 1 6.1373636516 12.3076321027 1.8075000000
305 1 5.6989804625 14.0588647757 3.6150000000
306 1 5.2605972733 15.8100614950 5.4225000000
307 1 4.8222140842 17.5611863786 7.2300000000
308 1 9.2060457763 7.5045748732 -5.4225000000
309 1 8.7676625872 9.2560294930 -3.6150000000
310 1 8.3292793980 11.0075830824 -1.8075000000
311 1 7.8908962089 12.7592208179 0.0000000000
312 1 7.4525130197 14.5109278931 1.8075000000
313 1 7.0141298306 16.2626889666 3.6150000000
314 1 6.5757466415 18.0144874359 5.4225000000
315 1 6.1373634523 19.7663044218 7.2300000000
316 1 10.5211951445 9.7067847402 -5.4225000000
317 1 10.0828119553 11.4586884778 -3.6150000000
318 1 9.6444287662 13.2107401087 -1.8075000000
319 1 9.2060455770 14.9629368098 0.0000000000
320 1 8.7676623879 16.7152786757 1.8075000000
321 1 8.3292791988 18.4677693683 3.6150000000
322 1 7.8908960096 20.2204171666 5.4225000000
323 1 7.4525128205 21.9732366646 7.2300000000
324 1 11.8363445126 11.9096463962 -5.4225000000
325 1 11.3979613235 13.6621148087 -3.6150000000
326 1 10.9595781343 15.4148011457 -1.8075000000
327 1 10.5211949452 17.1677203105 0.0000000000
328 1 10.0828117560 18.9208952186 1.8075000000
329 1 9.6444285669 20.6743596798 3.6150000000
330 1 9.2060453778 22.4281628801 5.4225000000
331 1 8.7676621886 24.1823765464 7.2300000000
332 1 13.1514938808 14.1132725874 -5.4225000000
333 1 12.7131106916 15.8664339629 -3.6150000000
334 1 12.2747275025 17.6199079755 -1.8075000000
335 1 11.8363443133 19.3737340084 0.0000000000
336 1 11.3979611242 21.1279670887 1.8075000000
337 1 10.9595779351 22.8826841408 3.6150000000
338 1 10.5211947459 24.6379936593 5.4225000000
339 1 10.0828115568 26.3940510765 7.2300000000
340 1 14.4666432489 16.3177560246 -5.4225000000
341 1 14.0282600598 18.0717461712 -3.6150000000
342 1 13.5898768706 19.8261693098 -1.8075000000
343 1 13.1514936815 21.5810956375 0.0000000000
344 1 12.7131104923 23.3366205021 1.8075000000
345 1 12.2747273032 25.0928744377 3.6150000000
346 1 11.8363441141 26.8500382170 5.4225000000
347 1 11.3979609249 28.6083656789 7.2300000000
348 1 15.7817926171 18.5231543782 -5.4225000000
349 1 15.3434094279 20.2781055268 -3.6150000000
350 1 14.9050262388 22.0336313794 -1.8075000000
351 1 14.4666430496 23.7898359562 0.0000000000
352 1 14.0282598605 25.5468572277 1.8075000000
353 1 13.5898766713 27.3048791604 3.6150000000
354 1 13.1514934822 29.0641481218 5.4225000000
355 1 17.0969419852 20.7294711833 -5.4225000000
356 1 16.6585587961 22.4854939632 -3.6150000000
357 1 16.2201756069 24.2422422591 -1.8075000000
358 1 15.7817924178 25.9998496118 0.0000000000
359 1 15.3434092286 27.7584869092 1.8075000000
360 1 18.4120913534 22.9366358833 -5.4225000000
361 1 17.9737081642 24.6937956909 -3.6150000000
362 1 17.5353249751 26.4518198019 -1.8075000000
363 1 17.0969417859 28.2108566321 0.0000000000
364 1 19.7272407215 25.1444893887 -5.4225000000
365 1 19.2888575324 26.9027824366 -3.6150000000
366 1 18.8504743432 28.6620399916 -1.8075000000
367 1 21.0423900897 27.3527835315 -5.4225000000
368 1 20.6040069005 29.1121215603 -3.6150000000
369 2 1.3151491689 -9.2092598426 -5.4225000000
370 2 1.3151491689 -9.2092598426 -1.8075000000
371 2 -0.0000001993 -7.0265092560 -1.8075000000
372 1 2.1919159457 -9.2029823624 -5.4225000000
373 1 1.7535327566 -7.4525663927 -3.6150000000
374 2 0.4383829899 -5.2697542383 -3.6150000000
375 2 0.8767661790 -3.5131072869 -1.8075000000
376 2 0.0000000000 0.4264587545 3.6150000000
377 2 0.8767663783 3.9394658936 3.6150000000
378 1 3.5070653139 -7.0019338457 -5.4225000000
379 1 3.0686821247 -5.2515594924 -3.6150000000
380 1 2.6302989356 -3.5010901867 -1.8075000000
381 1 2.1919157464 -1.7505609900 0.0000000000
382 1 1.7535325573 -0.0000050085 1.8075000000
383 2 0.4383831891 2.1829669095 1.8075000000
384 2 0.4383833884 9.6350700281 7.2300000000
385 2 1.3151497667 13.1482815943 7.2300000000
386 1 4.8222146820 -4.8011560963 -5.4225000000
387 1 4.3838314929 -3.0507483598 -3.6150000000
388 1 3.9454483037 -1.3002457480 -1.8075000000
389 1 3.5070651146 0.4503187738 0.0000000000
390 1 3.0686819254 2.2009134272 1.8075000000
391 1 2.6302987363 3.9515065932 3.6150000000
392 1 2.1919155472 5.7020657600 5.4225000000
393 1 1.7535323580 7.4525563778 7.2300000000
394 1 6.1373640502 -2.6005010359 -5.4225000000
395 1 5.6989808610 -0.8499922193 -3.6150000000
396 1 5.2605976719 0.9006124519 -1.8075000000
397 1 4.8222144827 2.6512827054 0.0000000000
398 1 4.3838312936 4.4019888400 1.8075000000
399 1 3.9454481044 6.1527007700 3.6150000000
400 1 3.5070649153 7.9033869802 5.4225000000
401 1 3.0686817262 9.6540133148 7.2300000000
402 1 7.4525134183 -0.3998342960 -5.4225000000
403 1 7.0141302292 1.3508406435 -3.6150000000
404 1 6.5757470400 3.1016160408 -1.8075000000
405 1 6.1373638509 4.8524650578 0.0000000000
406 1 5.6989806617 6.6033610671 1.8075000000
407 1 5.2605974726 8.3542767826 3.6150000000
408 1 4.8222142835 10.1051832554 5.4225000000
409 1 4.3838310943 11.8560486491 7.2300000000
410 1 8.7676627865 1.8009685462 -5.4225000000
411 1 8.3292795973 3.5518757935 -3.6150000000
412 1 7.8908964082 5.3028941769 -1.8075000000
413 1 7.4525132190 7.0540013869 0.0000000000
414 1 7.0141300299 8.8051753557 1.8075000000
415 1 6.5757468407 10.5563935464 3.6150000000
416 1 6.1373636516 12.3076321027 5.4225000000
417 1 5.6989804625 14.0588647757 7.2300000000
418 1 10.0828121546 4.0020245567 -5.4225000000
419 1 9.6444289655 5.7532345122 -3.6150000000
420 1 9.2060457763 7.5045748732 -1.8075000000
421 1 8.7676625872 9.2560294930 0.0000000000
422 1 8.3292793980 11.0075830824 1.8075000000
423 1 7.8908962089 12.7592208179 3.6150000000
424 1 7.4525130197 14.5109278931 5.4225000000
425 1 7.0141298306 16.2626889666 7.2300000000
426 1 11.3979615227 6.2034446454 -5.4225000000
427 1 10.9595783336 7.9550342442 -3.6150000000
428 1 10.5211951445 9.7067847402 -1.8075000000
429 1 10.0828119553 11.4586884778 0.0000000000
430 1 9.6444287662 13.2107401087 1.8075000000
431 1 9.2060455770 14.9629368098 3.6150000000
432 1 8.7676623879 16.7152786757 5.4225000000
433 1 8.3292791988 18.4677693683 7.2300000000
434 1 12.7131108909 8.4053330842 -5.4225000000
435 1 12.2747277018 10.1573871268 -3.6150000000
436 1 11.8363445126 11.9096463962 -1.8075000000
437 1 11.3979613235 13.6621148087 0.0000000000
438 1 10.9595781343 15.4148011457 1.8075000000
439 1 10.5211949452 17.1677203105 3.6150000000
440 1 10.0828117560 18.9208952186 5.4225000000
441 1 9.6444285669 20.6743596798 7.2300000000
442 1 14.0282602590 10.6077849503 -5.4225000000
443 1 13.5898770699 12.3603959713 -3.6150000000
444 1 13.1514938808 14.1132725874 -1.8075000000
445 1 12.7131106916 15.8664339629 0.0000000000
446 1 12.2747275025 17.6199079755 1.8075000000
447 1 11.8363443133 19.3737340084 3.6150000000
448 1 11.3979611242 21.1279670887 5.4225000000
449 1 10.9595779351 22.8826841408 7.2300000000
450 1 15.3434096272 12.8108810688 -5.4225000000
451 1 14.9050264381 14.5641470351 -3.6150000000
452 1 14.4666432489 16.3177560246 -1.8075000000
453 1 14.0282600598 18.0717461712 0.0000000000
454 1 13.5898768706 19.8261693098 1.8075000000
455 1 13.1514936815 21.5810956375 3.6150000000
456 1 12.7131104923 23.3366205021 5.4225000000
457 1 12.2747273032 25.0928744377 7.2300000000
458 1 16.6585589953 15.0146801762 -5.4225000000
459 1 16.2201758062 16.7686991746 -3.6150000000
460 1 15.7817926171 18.5231543782 -1.8075000000
461 1 15.3434094279 20.2781055268 0.0000000000
462 1 14.9050262388 22.0336313794 1.8075000000
463 1 14.4666430496 23.7898359562 3.6150000000
464 1 14.0282598605 25.5468572277 5.4225000000
465 1 13.5898766713 27.3048791604 7.2300000000
466 1 17.9737083635 17.2192085060 -5.4225000000
467 1 17.5353251743 18.9740697624 -3.6150000000
468 1 17.0969419852 20.7294711833 -1.8075000000
469 1 16.6585587961 22.4854939632 0.0000000000
470 1 16.2201756069 24.2422422591 1.8075000000
471 1 15.7817924178 25.9998496118 3.6150000000
472 1 15.3434092286 27.7584869092 5.4225000000
473 1 19.2888577316 19.4244479434 -5.4225000000
474 1 18.8504745425 21.1802192682 -3.6150000000
475 1 18.4120913534 22.9366358833 -1.8075000000
476 1 17.9737081642 24.6937956909 0.0000000000
477 1 17.5353249751 26.4518198019 1.8075000000
478 1 17.0969417859 28.2108566321 3.6150000000
479 1 20.6040070998 21.6303252526 -5.4225000000
480 1 20.1656239106 23.3870384729 -3.6150000000
481 1 19.7272407215 25.1444893887 -1.8075000000
482 1 19.2888575324 26.9027824366 0.0000000000
483 1 18.8504743432 28.6620399916 1.8075000000
484 1 21.9191564679 23.8367061893 -5.4225000000
485 1 21.4807732788 25.5943439911 -3.6150000000
486 1 21.0423900897 27.3527835315 -1.8075000000
487 1 20.6040069005 29.1121215603 0.0000000000
488 1 23.2343058361 26.0433986218 -5.4225000000
489 1 22.7959226469 27.8018874641 -3.6150000000
490 1 24.5494552042 28.2501671002 -5.4225000000
491 2 1.3151487703 -24.1158766041 5.4225000000
492 2 -0.0000003986 -14.4804751277 -3.6150000000
493 1 1.7535329558 -14.9051277742 -5.4225000000
494 2 0.4383827906 -12.7231646507 -5.4225000000
495 2 0.8767659797 -10.9661126820 -3.6150000000
496 2 1.3151491689 -9.2092598426 1.8075000000
497 2 -0.0000001993 -7.0265092560 1.8075000000
498 1 3.0686823240 -12.7033662204 -5.4225000000
499 1 2.6302991349 -10.9532645404 -3.6150000000
500 1 2.1919159457 -9.2029823624 -1.8075000000
501 1 1.7535327566 -7.4525663927 0.0000000000
502 2 0.4383829899 -5.2697542383 0.0000000000
503 2 0.8767661790 -3.5131072869 1.8075000000
504 2 0.8767663783 3.9394658936 7.2300000000
505 2 0.4383831891 2.1829669095 5.4225000000
506 1 4.3838316921 -10.5022400495 -5.4225000000
507 1 3.9454485030 -8.7521749930 -3.6150000000
508 1 3.5070653139 -7.0019338457 -1.8075000000
509 1 3.0686821247 -5.2515594924 0.0000000000
510 1 2.6302989356 -3.5010901867 1.8075000000
511 1 2.1919157464 -1.7505609900 3.6150000000
512 1 1.7535325573 -0.0000050085 5.4225000000
513 2 1.3151495674 5.6959878493 5.4225000000
514 1 5.6989810603 -8.3015426642 -5.4225000000
515 1 5.2605978711 -6.5514337409 -3.6150000000
516 1 4.8222146820 -4.8011560963 -1.8075000000
517 1 4.3838314929 -3.0507483598 0.0000000000
518 1 3.9454483037 -1.3002457480 1.8075000000
519 1 3.5070651146 0.4503187738 3.6150000000
520 1 3.0686819254 2.2009134272 5.4225000000
521 1 2.6302987363 3.9515065932 7.2300000000
522 1 7.0141304284 -6.1011015743 -5.4225000000
523 1 6.5757472393 -4.3508822276 -3.6150000000
524 1 6.1373640502 -2.6005010359 -1.8075000000
525 1 5.6989808610 -0.8499922193 0.0000000000
526 1 5.2605976719 0.9006124519 1.8075000000
527 1 4.8222144827 2.6512827054 3.6150000000
528 1 4.3838312936 4.4019888400 5.4225000000
529 1 3.9454481044 6.1527007700 7.2300000000
530 1 8.3292797966 -3.9007696283 -5.4225000000
531 1 7.8908966074 -2.1503809306 -3.6150000000
532 1 7.4525134183 -0.3998342960 -1.8075000000
533 1 7.0141302292 1.3508406435 0.0000000000
534 1 6.5757470400 3.1016160408 1.8075000000
535 1 6.1373638509 4.8524650578 3.6150000000
536 1 5.6989806617 6.6033610671 5.4225000000
537 1 5.2605974726 8.3542767826 7.2300000000
538 1 9.6444291647 -1.7004183343 -5.4225000000
539 1 9.2060459756 0.0501956194 -3.6150000000
540 1 8.7676627865 1.8009685462 -1.8075000000
541 1 8.3292795973 3.5518757935 0.0000000000
542 1 7.8908964082 5.3028941769 1.8075000000
543 1 7.4525132190 7.0540013869 3.6150000000
544 1 7.0141300299 8.8051753557 5.4225000000
545 1 6.5757468407 10.5563935464 7.2300000000
546 1 10.9595785329 0.5000669036 -5.4225000000
547 1 10.5211953437 2.2509623734 -3.6150000000
548 1 10.0828121546 4.0020245567 -1.8075000000
549 1 9.6444289655 5.7532345122 0.0000000000
550 1 9.2060457763 7.5045748732 1.8075000000
551 1 8.7676625872 9.2560294930 3.6150000000
552 1 8.3292793980 11.0075830824 5.4225000000
553 1 7.8908962089 12.7592208179 7.2300000000
554 1 12.2747279010 2.7007898093 -5.4225000000
555 1 11.8363447119 4.4520258099 -3.6150000000
556 1 11.3979615227 6.2034446454 -1.8075000000
557 1 10.9595783336 7.9550342442 0.0000000000
558 1 10.5211951445 9.7067847402 1.8075000000
559 1 10.0828119553 11.4586884778 3.6150000000
560 1 9.6444287662 13.2107401087 5.4225000000
561 1 9.2060455770 14.9629368098 7.2300000000
562 1 13.5898772692 4.9018446050 -5.4225000000
563 1 13.1514940800 6.6534843808 -3.6150000000
564 1 12.7131108909 8.4053330842 -1.8075000000
565 1 12.2747277018 10.1573871268 0.0000000000
566 1 11.8363445126 11.9096463962 1.8075000000
567 1 11.3979613235 13.6621148087 3.6150000000
568 1 10.9595781343 15.4148011457 5.4225000000
569 1 10.5211949452 17.1677203105 7.2300000000
570 1 14.9050266373 7.1033157050 -5.4225000000
571 1 14.4666434482 8.8554271590 -3.6150000000
572 1 14.0282602590 10.6077849503 -1.8075000000
573 1 13.5898770699 12.3603959713 0.0000000000
574 1 13.1514938808 14.1132725874 1.8075000000
575 1 12.7131106916 15.8664339629 3.6150000000
576 1 12.2747275025 17.6199079755 5.4225000000
577 1 11.8363443133 19.3737340084 7.2300000000
578 1 16.2201760055 9.3052756468 -5.4225000000
579 1 15.7817928163 11.0579304454 -3.6150000000
580 1 15.3434096272 12.8108810688 -1.8075000000
581 1 14.9050264381 14.5641470351 0.0000000000
582 1 14.4666432489 16.3177560246 1.8075000000
583 1 14.0282600598 18.0717461712 3.6150000000
584 1 13.5898768706 19.8261693098 5.4225000000
585 1 13.1514936815 21.5810956375 7.2300000000
586 1 17.5353253736 11.5077811910 -5.4225000000
587 1 17.0969421845 13.2610521660 -3.6150000000
588 1 16.6585589953 15.0146801762 -1.8075000000
589 1 16.2201758062 16.7686991746 0.0000000000
590 1 15.7817926171 18.5231543782 1.8075000000
591 1 15.3434094279 20.2781055268 3.6150000000
592 1 14.9050262388 22.0336313794 5.4225000000
593 1 14.4666430496 23.7898359562 7.2300000000
594 1 18.8504747418 13.7108676917 -5.4225000000
595 1 18.4120915526 15.4648241827 -3.6150000000
596 1 17.9737083635 17.2192085060 -1.8075000000
597 1 17.5353251743 18.9740697624 0.0000000000
598 1 17.0969419852 20.7294711833 1.8075000000
599 1 16.6585587961 22.4854939632 3.6150000000
600 1 16.2201756069 24.2422422591 5.4225000000
601 1 15.7817924178 25.9998496118 7.2300000000
602 1 20.1656241099 15.9145422066 -5.4225000000
603 1 19.7272409208 17.6692432344 -3.6150000000
604 1 19.2888577316 19.4244479434 -1.8075000000
605 1 18.8504745425 21.1802192682 0.0000000000
606 1 18.4120913534 22.9366358833 1.8075000000
607 1 17.9737081642 24.6937956909 3.6150000000
608 1 17.5353249751 26.4518198019 5.4225000000
609 1 17.0969417859 28.2108566321 7.2300000000
610 1 21.4807734781 18.1187764050 -5.4225000000
611 1 21.0423902889 19.8742621150 -3.6150000000
612 1 20.6040070998 21.6303252526 -1.8075000000
613 1 20.1656239106 23.3870384729 0.0000000000
614 1 19.7272407215 25.1444893887 1.8075000000
615 1 19.2888575324 26.9027824366 3.6150000000
616 1 18.8504743432 28.6620399916 5.4225000000
617 1 22.7959228462 20.3235010083 -5.4225000000
618 1 22.3575396571 22.0797836507 -3.6150000000
619 1 21.9191564679 23.8367061893 -1.8075000000
620 1 21.4807732788 25.5943439911 0.0000000000
621 1 21.0423900897 27.3527835315 1.8075000000
622 1 20.6040069005 29.1121215603 3.6150000000
623 1 24.1110722144 22.5286039693 -5.4225000000
624 1 23.6726890252 24.2856605235 -3.6150000000
625 1 23.2343058361 26.0433986218 -1.8075000000
626 1 22.7959226469 27.8018874641 0.0000000000
627 1 25.4262215825 24.7339344227 -5.4225000000
628 1 24.9878383934 26.4917033191 -3.6150000000
629 1 24.5494552042 28.2501671002 -1.8075000000
630 1 26.7413709507 26.9393132783 -5.4225000000
631 1 26.3029877615 28.6976970293 -3.6150000000
632 1 28.0565203188 29.1445493481 -5.4225000000
633 2 -0.0000005978 -21.9362498724 -5.4225000000
634 2 0.8767657804 -18.4197734518 -5.4225000000
635 2 1.3151489696 -16.6622748410 -3.6150000000
636 2 1.3151489696 -16.6622748410 0.0000000000
637 2 -0.0000003986 -14.4804751277 0.0000000000
638 1 2.6302993341 -18.4048272126 -5.4225000000
639 1 2.1919161450 -16.6551327857 -3.6150000000