# LAMMPS data file Sigma = 17, inclination = 0.000000
#LAMMPS data file
14624 atoms
2 atom types
-100.1000000000 100.1000000000 xlo xhi
-29.8100853000 29.8100853000 ylo yhi
-7.2300000000 7.2300000000 zlo zhi
0.0 0.0 0.0 xy xz yz

Atoms # atomic

1 1 0.4383823920 28.0565211159 -5.4225000000
2 1 -0.0000005978 22.3575402549 -5.4225000000
3 1 1.3151487703 24.5494560013 -5.4225000000
4 1 0.8767655812 26.3029885586 -3.6150000000
5 1 0.4383823920 28.0565211159 -1.8075000000
6 1 2.6302981385 26.7413717478 -5.4225000000
7 1 2.1919149493 28.4949043051 -3.6150000000
8 1 3.9454475066 28.9332874942 -5.4225000000
9 1 0.8767657804 18.8504751403 -5.4225000000
10 1 0.4383825913 20.6040076976 -3.6150000000
11 1 -0.0000005978 22.3575402549 -1.8075000000
12 1 2.1919151486 21.0423908868 -5.4225000000
13 1 1.7535319595 22.7959234441 -3.6150000000
14 1 1.3151487703 24.5494560013 -1.8075000000
15 1 0.8767655812 26.3029885586 0.0000000000
16 1 0.4383823920 28.0565211159 1.8075000000
17 1 3.5070645167 23.2343066332 -5.4225000000
18 1 3.0686813276 24.9878391905 -3.6150000000
19 1 2.6302981385 26.7413717478 -1.8075000000
20 1 2.1919149493 28.4949043051 0.0000000000
21 1 4.8222138849 25.4262223796 -5.4225000000
22 1 4.3838306958 27.1797549369 -3.6150000000
23 1 3.9454475066 28.9332874942 -1.8075000000
24 1 6.1373632530 27.6181381261 -5.4225000000
25 1 5.6989800639 29.3716706834 -3.6150000000
26 1 0.4383827906 13.1514942793 -5.4225000000
27 1 -0.0000003986 14.9050268366 -3.6150000000
28 1 1.7535321587 15.3434100257 -5.4225000000
29 1 1.3151489696 17.0969425830 -3.6150000000
30 1 0.8767657804 18.8504751403 -1.8075000000
31 1 0.4383825913 20.6040076976 0.0000000000
32 1 -0.0000005978 22.3575402549 1.8075000000
33 1 3.0686815269 17.5353257722 -5.4225000000
34 1 2.6302983377 19.2888583295 -3.6150000000
35 1 2.1919151486 21.0423908868 -1.8075000000
36 1 1.7535319595 22.7959234441 0.0000000000
37 1 1.3151487703 24.5494560013 1.8075000000
38 1 0.8767655812 26.3029885586 3.6150000000
39 1 0.4383823920 28.0565211159 5.4225000000
40 1 4.3838308950 19.7272415186 -5.4225000000
41 1 3.9454477059 21.4807740759 -3.6150000000
42 1 3.5070645167 23.2343066332 -1.8075000000
43 1 3.0686813276 24.9878391905 0.0000000000
44 1 2.6302981385 26.7413717478 1.8075000000
45 1 2.1919149493 28.4949043051 3.6150000000
46 1 5.6989802632 21.9191572650 -5.4225000000
47 1 5.2605970740 23.6726898223 -3.6150000000
48 1 4.8222138849 25.4262223796 -1.8075000000
49 1 4.3838306958 27.1797549369 0.0000000000
50 1 3.9454475066 28.9332874942 1.8075000000
51 1 7.0141296313 24.1110730115 -5.4225000000
52 1 6.5757464422 25.8646055688 -3.6150000000
53 1 6.1373632530 27.6181381261 -1.8075000000
54 1 5.6989800639 29.3716706834 0.0000000000
55 1 8.3292789995 26.3029887579 -5.4225000000
56 1 7.8908958103 28.0565213152 -3.6150000000
57 1 9.6444283676 28.4949045043 -5.4225000000
58 1 -0.0000001993 7.4525134183 -5.4225000000
59 1 1.3151491689 9.6444291647 -5.4225000000
60 1 0.8767659797 11.3979617220 -3.6150000000
61 1 0.4383827906 13.1514942793 -1.8075000000
62 1 -0.0000003986 14.9050268366 0.0000000000
63 1 2.6302985370 11.8363449112 -5.4225000000
64 1 2.1919153479 13.5898774685 -3.6150000000
65 1 1.7535321587 15.3434100257 -1.8075000000
66 1 1.3151489696 17.0969425830 0.0000000000
67 1 0.8767657804 18.8504751403 1.8075000000
68 1 0.4383825913 20.6040076976 3.6150000000
69 1 -0.0000005978 22.3575402549 5.4225000000
70 1 3.9454479052 14.0282606576 -5.4225000000
71 1 3.5070647160 15.7817932149 -3.6150000000
72 1 3.0686815269 17.5353257722 -1.8075000000
73 1 2.6302983377 19.2888583295 0.0000000000
74 1 2.1919151486 21.0423908868 1.8075000000
75 1 1.7535319595 22.7959234441 3.6150000000
76 1 1.3151487703 24.5494560013 5.4225000000
77 1 0.8767655812 26.3029885586 7.2300000000
78 1 5.2605972733 16.2201764040 -5.4225000000
79 1 4.8222140842 17.9737089613 -3.6150000000
80 1 4.3838308950 19.7272415186 -1.8075000000
81 1 3.9454477059 21.4807740759 0.0000000000
82 1 3.5070645167 23.2343066332 1.8075000000
83 1 3.0686813276 24.9878391905 3.6150000000
84 1 2.6302981385 26.7413717478 5.4225000000
85 1 2.1919149493 28.4949043051 7.2300000000
86 1 6.5757466415 18.4120921505 -5.4225000000
87 1 6.1373634523 20.1656247078 -3.6150000000
88 1 5.6989802632 21.9191572650 -1.8075000000
89 1 5.2605970740 23.6726898223 0.0000000000
90 1 4.8222138849 25.4262223796 1.8075000000
91 1 4.3838306958 27.1797549369 3.6150000000
92 1 3.9454475066 28.9332874942 5.4225000000
93 1 7.8908960096 20.6040078969 -5.4225000000
94 1 7.4525128205 22.3575404542 -3.6150000000
95 1 7.0141296313 24.1110730115 -1.8075000000
96 1 6.5757464422 25.8646055688 0.0000000000
97 1 6.1373632530 27.6181381261 1.8075000000
98 1 5.6989800639 29.3716706834 3.6150000000
99 1 9.2060453778 22.7959236433 -5.4225000000
100 1 8.7676621886 24.5494562006 -3.6150000000
101 1 8.3292789995 26.3029887579 -1.8075000000
102 1 7.8908958103 28.0565213152 0.0000000000
103 1 10.5211947459 24.9878393898 -5.4225000000
104 1 10.0828115568 26.7413719471 -3.6150000000
105 1 9.6444283676 28.4949045043 -1.8075000000
106 1 11.8363441141 27.1797551362 -5.4225000000
107 1 11.3979609249 28.9332876935 -3.6150000000
108 1 13.1514934822 29.3716708826 -5.4225000000
109 1 0.8767661790 3.9454483037 -5.4225000000
110 1 0.4383829899 5.6989808610 -3.6150000000
111 1 -0.0000001993 7.4525134183 -1.8075000000
112 1 2.1919155472 6.1373640502 -5.4225000000
113 1 1.7535323580 7.8908966074 -3.6150000000
114 1 1.3151491689 9.6444291647 -1.8075000000
115 1 0.8767659797 11.3979617220 0.0000000000
116 1 0.4383827906 13.1514942793 1.8075000000
117 1 -0.0000003986 14.9050268366 3.6150000000
118 1 3.5070649153 8.3292797966 -5.4225000000
119 1 3.0686817262 10.0828123539 -3.6150000000
120 1 2.6302985370 11.8363449112 -1.8075000000
121 1 2.1919153479 13.5898774685 0.0000000000
122 1 1.7535321587 15.3434100257 1.8075000000
123 1 1.3151489696 17.0969425830 3.6150000000
124 1 0.8767657804 18.8504751403 5.4225000000
125 1 0.4383825913 20.6040076976 7.2300000000
126 1 4.8222142835 10.5211955430 -5.4225000000
127 1 4.3838310943 12.2747281003 -3.6150000000
128 1 3.9454479052 14.0282606576 -1.8075000000
129 1 3.5070647160 15.7817932149 0.0000000000
130 1 3.0686815269 17.5353257722 1.8075000000
131 1 2.6302983377 19.2888583295 3.6150000000
132 1 2.1919151486 21.0423908868 5.4225000000
133 1 1.7535319595 22.7959234441 7.2300000000
134 1 6.1373636516 12.7131112895 -5.4225000000
135 1 5.6989804625 14.4666438467 -3.6150000000
136 1 5.2605972733 16.2201764040 -1.8075000000
137 1 4.8222140842 17.9737089613 0.0000000000
138 1 4.3838308950 19.7272415186 1.8075000000
139 1 3.9454477059 21.4807740759 3.6150000000
140 1 3.5070645167 23.2343066332 5.4225000000
141 1 3.0686813276 24.9878391905 7.2300000000
142 1 7.4525130197 14.9050270359 -5.4225000000
143 1 7.0141298306 16.6585595932 -3.6150000000
144 1 6.5757466415 18.4120921505 -1.8075000000
145 1 6.1373634523 20.1656247078 0.0000000000
146 1 5.6989802632 21.9191572650 1.8075000000
147 1 5.2605970740 23.6726898223 3.6150000000
148 1 4.8222138849 25.4262223796 5.4225000000
149 1 4.3838306958 27.1797549369 7.2300000000
150 1 8.7676623879 17.0969427823 -5.4225000000
151 1 8.3292791988 18.8504753396 -3.6150000000
152 1 7.8908960096 20.6040078969 -1.8075000000
153 1 7.4525128205 22.3575404542 0.0000000000
154 1 7.0141296313 24.1110730115 1.8075000000
155 1 6.5757464422 25.8646055688 3.6150000000
156 1 6.1373632530 27.6181381261 5.4225000000
157 1 5.6989800639 29.3716706834 7.2300000000
158 1 10.0828117560 19.2888585288 -5.4225000000
159 1 9.6444285669 21.0423910860 -3.6150000000
160 1 9.2060453778 22.7959236433 -1.8075000000
161 1 8.7676621886 24.5494562006 0.0000000000
162 1 8.3292789995 26.3029887579 1.8075000000
163 1 7.8908958103 28.0565213152 3.6150000000
164 1 11.3979611242 21.4807742752 -5.4225000000
165 1 10.9595779351 23.2343068325 -3.6150000000
166 1 10.5211947459 24.9878393898 -1.8075000000
167 1 10.0828115568 26.7413719471 0.0000000000
168 1 9.6444283676 28.4949045043 1.8075000000
169 1 12.7131104923 23.6726900216 -5.4225000000
170 1 12.2747273032 25.4262225789 -3.6150000000
171 1 11.8363441141 27.1797551362 -1.8075000000
172 1 11.3979609249 28.9332876935 0.0000000000
173 1 14.0282598605 25.8646057680 -5.4225000000
174 1 13.5898766713 27.6181383253 -3.6150000000
175 1 13.1514934822 29.3716708826 -1.8075000000
176 1 15.3434092286 28.0565215145 -5.4225000000
177 1 0.4383831891 -1.7535325573 -5.4225000000
178 1 0.0000000000 -0.0000000000 -3.6150000000
179 1 1.7535325573 0.4383831891 -5.4225000000
180 1 1.3151493681 2.1919157464 -3.6150000000
181 1 0.8767661790 3.9454483037 -1.8075000000
182 1 0.4383829899 5.6989808610 0.0000000000
183 1 -0.0000001993 7.4525134183 1.8075000000
184 1 3.0686819254 2.6302989356 -5.4225000000
185 1 2.6302987363 4.3838314929 -3.6150000000
186 1 2.1919155472 6.1373640502 -1.8075000000
187 1 1.7535323580 7.8908966074 0.0000000000
188 1 1.3151491689 9.6444291647 1.8075000000
189 1 0.8767659797 11.3979617220 3.6150000000
190 1 0.4383827906 13.1514942793 5.4225000000
191 1 -0.0000003986 14.9050268366 7.2300000000
192 1 4.3838312936 4.8222146820 -5.4225000000
193 1 3.9454481044 6.5757472393 -3.6150000000
194 1 3.5070649153 8.3292797966 -1.8075000000
195 1 3.0686817262 10.0828123539 0.0000000000
196 1 2.6302985370 11.8363449112 1.8075000000
197 1 2.1919153479 13.5898774685 3.6150000000
198 1 1.7535321587 15.3434100257 5.4225000000
199 1 1.3151489696 17.0969425830 7.2300000000
200 1 5.6989806617 7.0141304284 -5.4225000000
201 1 5.2605974726 8.7676629857 -3.6150000000
202 1 4.8222142835 10.5211955430 -1.8075000000
203 1 4.3838310943 12.2747281003 0.0000000000
204 1 3.9454479052 14.0282606576 1.8075000000
205 1 3.5070647160 15.7817932149 3.6150000000
206 1 3.0686815269 17.5353257722 5.4225000000
207 1 2.6302983377 19.2888583295 7.2300000000
208 1 7.0141300299 9.2060461749 -5.4225000000
209 1 6.5757468407 10.9595787322 -3.6150000000
210 1 6.1373636516 12.7131112895 -1.8075000000
211 1 5.6989804625 14.4666438467 0.0000000000
212 1 5.2605972733 16.2201764040 1.8075000000
213 1 4.8222140842 17.9737089613 3.6150000000
214 1 4.3838308950 19.7272415186 5.4225000000
215 1 3.9454477059 21.4807740759 7.2300000000
216 1 8.3292793980 11.3979619213 -5.4225000000
217 1 7.8908962089 13.1514944786 -3.6150000000
218 1 7.4525130197 14.9050270359 -1.8075000000
219 1 7.0141298306 16.6585595932 0.0000000000
220 1 6.5757466415 18.4120921505 1.8075000000
221 1 6.1373634523 20.1656247078 3.6150000000
222 1 5.6989802632 21.9191572650 5.4225000000
223 1 5.2605970740 23.6726898223 7.2300000000
224 1 9.6444287662 13.5898776677 -5.4225000000
225 1 9.2060455770 15.3434102250 -3.6150000000
226 1 8.7676623879 17.0969427823 -1.8075000000
227 1 8.3292791988 18.8504753396 0.0000000000
228 1 7.8908960096 20.6040078969 1.8075000000
229 1 7.4525128205 22.3575404542 3.6150000000
230 1 7.0141296313 24.1110730115 5.4225000000
231 1 6.5757464422 25.8646055688 7.2300000000
232 1 10.9595781343 15.7817934142 -5.4225000000
233 1 10.5211949452 17.5353259715 -3.6150000000
234 1 10.0828117560 19.2888585288 -1.8075000000
235 1 9.6444285669 21.0423910860 0.0000000000
236 1 9.2060453778 22.7959236433 1.8075000000
237 1 8.7676621886 24.5494562006 3.6150000000
238 1 8.3292789995 26.3029887579 5.4225000000
239 1 7.8908958103 28.0565213152 7.2300000000
240 1 12.2747275025 17.9737091606 -5.4225000000
241 1 11.8363443133 19.7272417179 -3.6150000000
242 1 11.3979611242 21.4807742752 -1.8075000000
243 1 10.9595779351 23.2343068325 0.0000000000
244 1 10.5211947459 24.9878393898 1.8075000000
245 1 10.0828115568 26.7413719471 3.6150000000
246 1 9.6444283676 28.4949045043 5.4225000000
247 1 13.5898768706 20.1656249070 -5.4225000000
248 1 13.1514936815 21.9191574643 -3.6150000000
249 1 12.7131104923 23.6726900216 -1.8075000000
250 1 12.2747273032 25.4262225789 0.0000000000
251 1 11.8363441141 27.1797551362 1.8075000000
252 1 11.3979609249 28.9332876935 3.6150000000
253 1 14.9050262388 22.3575406535 -5.4225000000
254 1 14.4666430496 24.1110732108 -3.6150000000
255 1 14.0282598605 25.8646057680 -1.8075000000
256 1 13.5898766713 27.6181383253 0.0000000000
257 1 13.1514934822 29.3716708826 1.8075000000
258 1 16.2201756069 24.5494563999 -5.4225000000
259 1 15.7817924178 26.3029889572 -3.6150000000
260 1 15.3434092286 28.0565215145 -1.8075000000
261 1 17.5353249751 26.7413721463 -5.4225000000
262 1 17.0969417859 28.4949047036 -3.6150000000
263 1 18.8504743432 28.9332878928 -5.4225000000
264 1 0.0000001993 -7.4525134183 -5.4225000000
265 1 1.3151495674 -5.2605976719 -5.4225000000
266 1 0.8767663783 -3.5070651146 -3.6150000000
267 1 0.4383831891 -1.7535325573 -1.8075000000
268 1 0.0000000000 0.0000000000 0.0000000000
269 1 2.6302989356 -3.0686819254 -5.4225000000
270 1 2.1919157464 -1.3151493681 -3.6150000000
271 1 1.7535325573 0.4383831891 -1.8075000000
272 1 1.3151493681 2.1919157464 0.0000000000
273 1 0.8767661790 3.9454483037 1.8075000000
274 1 0.4383829899 5.6989808610 3.6150000000
275 1 -0.0000001993 7.4525134183 5.4225000000
276 1 3.9454483037 -0.8767661790 -5.4225000000
277 1 3.5070651146 0.8767663783 -3.6150000000
278 1 3.0686819254 2.6302989356 -1.8075000000
279 1 2.6302987363 4.3838314929 0.0000000000
280 1 2.1919155472 6.1373640502 1.8075000000
281 1 1.7535323580 7.8908966074 3.6150000000
282 1 1.3151491689 9.6444291647 5.4225000000
283 1 0.8767659797 11.3979617220 7.2300000000
284 1 5.2605976719 1.3151495674 -5.4225000000
285 1 4.8222144827 3.0686821247 -3.6150000000
286 1 4.3838312936 4.8222146820 -1.8075000000
287 1 3.9454481044 6.5757472393 0.0000000000
288 1 3.5070649153 8.3292797966 1.8075000000
289 1 3.0686817262 10.0828123539 3.6150000000
290 1 2.6302985370 11.8363449112 5.4225000000
291 1 2.1919153479 13.5898774685 7.2300000000
292 1 6.5757470400 3.5070653139 -5.4225000000
293 1 6.1373638509 5.2605978711 -3.6150000000
294 1 5.6989806617 7.0141304284 -1.8075000000
295 1 5.2605974726 8.7676629857 0.0000000000
296 1 4.8222142835 10.5211955430 1.8075000000
297 1 4.3838310943 12.2747281003 3.6150000000
298 1 3.9454479052 14.0282606576 5.4225000000
299 1 3.5070647160 15.7817932149 7.2300000000
300 1 7.8908964082 5.6989810603 -5.4225000000
301 1 7.4525132190 7.4525136176 -3.6150000000
302 1 7.0141300299 9.2060461749 -1.8075000000
303 1 6.5757468407 10.9595787322 0.0000000000
304 1 6.1373636516 12.7131112895 1.8075000000
305 1 5.6989804625 14.4666438467 3.6150000000
306 1 5.2605972733 16.2201764040 5.4225000000
307 1 4.8222140842 17.9737089613 7.2300000000
308 1 9.2060457763 7.8908968067 -5.4225000000
309 1 8.7676625872 9.6444293640 -3.6150000000
310 1 8.3292793980 11.3979619213 -1.8075000000
311 1 7.8908962089 13.1514944786 0.0000000000
312 1 7.4525130197 14.9050270359 1.8075000000
313 1 7.0141298306 16.6585595932 3.6150000000
314 1 6.5757466415 18.4120921505 5.4225000000
315 1 6.1373634523 20.1656247078 7.2300000000
316 1 10.5211951445 10.0828125532 -5.4225000000
317 1 10.0828119553 11.8363451104 -3.6150000000
318 1 9.6444287662 13.5898776677 -1.8075000000
319 1 9.2060455770 15.3434102250 0.0000000000
320 1 8.7676623879 17.0969427823 1.8075000000
321 1 8.3292791988 18.8504753396 3.6150000000
322 1 7.8908960096 20.6040078969 5.4225000000
323 1 7.4525128205 22.3575404542 7.2300000000
324 1 11.8363445126 12.2747282996 -5.4225000000
325 1 11.3979613235 14.0282608569 -3.6150000000
326 1 10.9595781343 15.7817934142 -1.8075000000
327 1 10.5211949452 17.5353259715 0.0000000000
328 1 10.0828117560 19.2888585288 1.8075000000
329 1 9.6444285669 21.0423910860 3.6150000000
330 1 9.2060453778 22.7959236433 5.4225000000
331 1 8.7676621886 24.5494562006 7.2300000000
332 1 13.1514938808 14.4666440460 -5.4225000000
333 1 12.7131106916 16.2201766033 -3.6150000000
334 1 12.2747275025 17.9737091606 -1.8075000000
335 1 11.8363443133 19.7272417179 0.0000000000
336 1 11.3979611242 21.4807742752 1.8075000000
337 1 10.9595779351 23.2343068325 3.6150000000
338 1 10.5211947459 24.9878393898 5.4225000000
339 1 10.0828115568 26.7413719471 7.2300000000
340 1 14.4666432489 16.6585597925 -5.4225000000
341 1 14.0282600598 18.4120923497 -3.6150000000
342 1 13.5898768706 20.1656249070 -1.8075000000
343 1 13.1514936815 21.9191574643 0.0000000000
344 1 12.7131104923 23.6726900216 1.8075000000
345 1 12.2747273032 25.4262225789 3.6150000000
346 1 11.8363441141 27.1797551362 5.4225000000
347 1 11.3979609249 28.9332876935 7.2300000000
348 1 15.7817926171 18.8504755389 -5.4225000000
349 1 15.3434094279 20.6040080962 -3.6150000000
350 1 14.9050262388 22.3575406535 -1.8075000000
351 1 14.4666430496 24.1110732108 0.0000000000
352 1 14.0282598605 25.8646057680 1.8075000000
353 1 13.5898766713 27.6181383253 3.6150000000
354 1 13.1514934822 29.3716708826 5.4225000000
355 1 17.0969419852 21.0423912853 -5.4225000000
356 1 16.6585587961 22.7959238426 -3.6150000000
357 1 16.2201756069 24.5494563999 -1.8075000000
358 1 15.7817924178 26.3029889572 0.0000000000
359 1 15.3434092286 28.0565215145 1.8075000000
360 1 18.4120913534 23.2343070318 -5.4225000000
361 1 17.9737081642 24.9878395890 -3.6150000000
362 1 17.5353249751 26.7413721463 -1.8075000000
363 1 17.0969417859 28.4949047036 0.0000000000
364 1 19.7272407215 25.4262227782 -5.4225000000
365 1 19.2888575324 27.1797553355 -3.6150000000
366 1 18.8504743432 28.9332878928 -1.8075000000
367 1 21.0423900897 27.6181385246 -5.4225000000
368 1 20.6040069005 29.3716710819 -3.6150000000
369 1 0.8767665776 -10.9595785329 -5.4225000000
370 1 0.4383833884 -9.2060459756 -3.6150000000
371 1 0.0000001993 -7.4525134183 -1.8075000000
372 1 2.1919159457 -8.7676627865 -5.4225000000
373 1 1.7535327566 -7.0141302292 -3.6150000000
374 1 1.3151495674 -5.2605976719 -1.8075000000
375 1 0.8767663783 -3.5070651146 0.0000000000
376 1 0.4383831891 -1.7535325573 1.8075000000
377 1 0.0000000000 0.0000000000 3.6150000000
378 1 3.5070653139 -6.5757470400 -5.4225000000
379 1 3.0686821247 -4.8222144827 -3.6150000000
380 1 2.6302989356 -3.0686819254 -1.8075000000
381 1 2.1919157464 -1.3151493681 0.0000000000
382 1 1.7535325573 0.4383831891 1.8075000000
383 1 1.3151493681 2.1919157464 3.6150000000
384 1 0.8767661790 3.9454483037 5.4225000000
385 1 0.4383829899 5.6989808610 7.2300000000
386 1 4.8222146820 -4.3838312936 -5.4225000000
387 1 4.3838314929 -2.6302987363 -3.6150000000
388 1 3.9454483037 -0.8767661790 -1.8075000000
389 1 3.5070651146 0.8767663783 0.0000000000
390 1 3.0686819254 2.6302989356 1.8075000000
391 1 2.6302987363 4.3838314929 3.6150000000
392 1 2.1919155472 6.1373640502 5.4225000000
393 1 1.7535323580 7.8908966074 7.2300000000
394 1 6.1373640502 -2.1919155472 -5.4225000000
395 1 5.6989808610 -0.4383829899 -3.6150000000
396 1 5.2605976719 1.3151495674 -1.8075000000
397 1 4.8222144827 3.0686821247 0.0000000000
398 1 4.3838312936 4.8222146820 1.8075000000
399 1 3.9454481044 6.5757472393 3.6150000000
400 1 3.5070649153 8.3292797966 5.4225000000
401 1 3.0686817262 10.0828123539 7.2300000000
402 1 7.4525134183 0.0000001993 -5.4225000000
403 1 7.0141302292 1.7535327566 -3.6150000000
404 1 6.5757470400 3.5070653139 -1.8075000000
405 1 6.1373638509 5.2605978711 0.0000000000
406 1 5.6989806617 7.0141304284 1.8075000000
407 1 5.2605974726 8.7676629857 3.6150000000
408 1 4.8222142835 10.5211955430 5.4225000000
409 1 4.3838310943 12.2747281003 7.2300000000
410 1 8.7676627865 2.1919159457 -5.4225000000
411 1 8.3292795973 3.9454485030 -3.6150000000
412 1 7.8908964082 5.6989810603 -1.8075000000
413 1 7.4525132190 7.4525136176 0.0000000000
414 1 7.0141300299 9.2060461749 1.8075000000
415 1 6.5757468407 10.9595787322 3.6150000000
416 1 6.1373636516 12.7131112895 5.4225000000
417 1 5.6989804625 14.4666438467 7.2300000000
418 1 10.0828121546 4.3838316921 -5.4225000000
419 1 9.6444289655 6.1373642494 -3.6150000000
420 1 9.2060457763 7.8908968067 -1.8075000000
421 1 8.7676625872 9.6444293640 0.0000000000
422 1 8.3292793980 11.3979619213 1.8075000000
423 1 7.8908962089 13.1514944786 3.6150000000
424 1 7.4525130197 14.9050270359 5.4225000000
425 1 7.0141298306 16.6585595932 7.2300000000
426 1 11.3979615227 6.5757474386 -5.4225000000
427 1 10.9595783336 8.3292799959 -3.6150000000
428 1 10.5211951445 10.0828125532 -1.8075000000
429 1 10.0828119553 11.8363451104 0.0000000000
430 1 9.6444287662 13.5898776677 1.8075000000
431 1 9.2060455770 15.3434102250 3.6150000000
432 1 8.7676623879 17.0969427823 5.4225000000
433 1 8.3292791988 18.8504753396 7.2300000000
434 1 12.7131108909 8.7676631850 -5.4225000000
435 1 12.2747277018 10.5211957423 -3.6150000000
436 1 11.8363445126 12.2747282996 -1.8075000000
437 1 11.3979613235 14.0282608569 0.0000000000
438 1 10.9595781343 15.7817934142 1.8075000000
439 1 10.5211949452 17.5353259715 3.6150000000
440 1 10.0828117560 19.2888585288 5.4225000000
441 1 9.6444285669 21.0423910860 7.2300000000
442 1 14.0282602590 10.9595789314 -5.4225000000
443 1 13.5898770699 12.7131114887 -3.6150000000
444 1 13.1514938808 14.4666440460 -1.8075000000
445 1 12.7131106916 16.2201766033 0.0000000000
446 1 12.2747275025 17.9737091606 1.8075000000
447 1 11.8363443133 19.7272417179 3.6150000000
448 1 11.3979611242 21.4807742752 5.4225000000
449 1 10.9595779351 23.2343068325 7.2300000000
450 1 15.3434096272 13.1514946779 -5.4225000000
451 1 14.9050264381 14.9050272352 -3.6150000000
452 1 14.4666432489 16.6585597925 -1.8075000000
453 1 14.0282600598 18.4120923497 0.0000000000
454 1 13.5898768706 20.1656249070 1.8075000000
455 1 13.1514936815 21.9191574643 3.6150000000
456 1 12.7131104923 23.6726900216 5.4225000000
457 1 12.2747273032 25.4262225789 7.2300000000
458 1 16.6585589953 15.3434104243 -5.4225000000
459 1 16.2201758062 17.0969429816 -3.6150000000
460 1 15.7817926171 18.8504755389 -1.8075000000
461 1 15.3434094279 20.6040080962 0.0000000000
462 1 14.9050262388 22.3575406535 1.8075000000
463 1 14.4666430496 24.1110732108 3.6150000000
464 1 14.0282598605 25.8646057680 5.4225000000
465 1 13.5898766713 27.6181383253 7.2300000000
466 1 17.9737083635 17.5353261707 -5.4225000000
467 1 17.5353251743 19.2888587280 -3.6150000000
468 1 17.0969419852 21.0423912853 -1.8075000000
469 1 16.6585587961 22.7959238426 0.0000000000
470 1 16.2201756069 24.5494563999 1.8075000000
471 1 15.7817924178 26.3029889572 3.6150000000
472 1 15.3434092286 28.0565215145 5.4225000000
473 1 19.2888577316 19.7272419172 -5.4225000000
474 1 18.8504745425 21.4807744745 -3.6150000000
475 1 18.4120913534 23.2343070318 -1.8075000000
476 1 17.9737081642 24.9878395890 0.0000000000
477 1 17.5353249751 26.7413721463 1.8075000000
478 1 17.0969417859 28.4949047036 3.6150000000
479 1 20.6040070998 21.9191576636 -5.4225000000
480 1 20.1656239106 23.6726902209 -3.6150000000
481 1 19.7272407215 25.4262227782 -1.8075000000
482 1 19.2888575324 27.1797553355 0.0000000000
483 1 18.8504743432 28.9332878928 1.8075000000
484 1 21.9191564679 24.1110734100 -5.4225000000
485 1 21.4807732788 25.8646059673 -3.6150000000
486 1 21.0423900897 27.6181385246 -1.8075000000
487 1 20.6040069005 29.3716710819 0.0000000000
488 1 23.2343058361 26.3029891565 -5.4225000000
489 1 22.7959226469 28.0565217138 -3.6150000000
490 1 24.5494552042 28.4949049029 -5.4225000000
491 1 0.4383835877 -16.6585593939 -5.4225000000
492 1 0.0000003986 -14.9050268366 -3.6150000000
493 1 1.7535329558 -14.4666436475 -5.4225000000
494 1 1.3151497667 -12.7131110902 -3.6150000000
495 1 0.8767665776 -10.9595785329 -1.8075000000
496 1 0.4383833884 -9.2060459756 0.0000000000
497 1 0.0000001993 -7.4525134183 1.8075000000
498 1 3.0686823240 -12.2747279010 -5.4225000000
499 1 2.6302991349 -10.5211953437 -3.6150000000
500 1 2.1919159457 -8.7676627865 -1.8075000000
501 1 1.7535327566 -7.0141302292 0.0000000000
502 1 1.3151495674 -5.2605976719 1.8075000000
503 1 0.8767663783 -3.5070651146 3.6150000000
504 1 0.4383831891 -1.7535325573 5.4225000000
505 1 0.0000000000 0.0000000000 7.2300000000
506 1 4.3838316921 -10.0828121546 -5.4225000000
507 1 3.9454485030 -8.3292795973 -3.6150000000
508 1 3.5070653139 -6.5757470400 -1.8075000000
509 1 3.0686821247 -4.8222144827 0.0000000000
510 1 2.6302989356 -3.0686819254 1.8075000000
511 1 2.1919157464 -1.3151493681 3.6150000000
512 1 1.7535325573 0.4383831891 5.4225000000
513 1 1.3151493681 2.1919157464 7.2300000000
514 1 5.6989810603 -7.8908964082 -5.4225000000
515 1 5.2605978711 -6.1373638509 -3.6150000000
516 1 4.8222146820 -4.3838312936 -1.8075000000
517 1 4.3838314929 -2.6302987363 0.0000000000
518 1 3.9454483037 -0.8767661790 1.8075000000
519 1 3.5070651146 0.8767663783 3.6150000000
520 1 3.0686819254 2.6302989356 5.4225000000
521 1 2.6302987363 4.3838314929 7.2300000000
522 1 7.0141304284 -5.6989806617 -5.4225000000
523 1 6.5757472393 -3.9454481044 -3.6150000000
524 1 6.1373640502 -2.1919155472 -1.8075000000
525 1 5.6989808610 -0.4383829899 0.0000000000
526 1 5.2605976719 1.3151495674 1.8075000000
527 1 4.8222144827 3.0686821247 3.6150000000
528 1 4.3838312936 4.8222146820 5.4225000000
529 1 3.9454481044 6.5757472393 7.2300000000
530 1 8.3292797966 -3.5070649153 -5.4225000000
531 1 7.8908966074 -1.7535323580 -3.6150000000
532 1 7.4525134183 0.0000001993 -1.8075000000
533 1 7.0141302292 1.7535327566 0.0000000000
534 1 6.5757470400 3.5070653139 1.8075000000
535 1 6.1373638509 5.2605978711 3.6150000000
536 1 5.6989806617 7.0141304284 5.4225000000
537 1 5.2605974726 8.7676629857 7.2300000000
538 1 9.6444291647 -1.3151491689 -5.4225000000
539 1 9.2060459756 0.4383833884 -3.6150000000
540 1 8.7676627865 2.1919159457 -1.8075000000
541 1 8.3292795973 3.9454485030 0.0000000000
542 1 7.8908964082 5.6989810603 1.8075000000
543 1 7.4525132190 7.4525136176 3.6150000000
544 1 7.0141300299 9.2060461749 5.4225000000
545 1 6.5757468407 10.9595787322 7.2300000000
546 1 10.9595785329 0.8767665776 -5.4225000000
547 1 10.5211953437 2.6302991349 -3.6150000000
548 1 10.0828121546 4.3838316921 -1.8075000000
549 1 9.6444289655 6.1373642494 0.0000000000
550 1 9.2060457763 7.8908968067 1.8075000000
551 1 8.7676625872 9.6444293640 3.6150000000
552 1 8.3292793980 11.3979619213 5.4225000000
553 1 7.8908962089 13.1514944786 7.2300000000
554 1 12.2747279010 3.0686823240 -5.4225000000
555 1 11.8363447119 4.8222148813 -3.6150000000
556 1 11.3979615227 6.5757474386 -1.8075000000
557 1 10.9595783336 8.3292799959 0.0000000000
558 1 10.5211951445 10.0828125532 1.8075000000
559 1 10.0828119553 11.8363451104 3.6150000000
560 1 9.6444287662 13.5898776677 5.4225000000
561 1 9.2060455770 15.3434102250 7.2300000000
562 1 13.5898772692 5.2605980704 -5.4225000000
563 1 13.1514940800 7.0141306277 -3.6150000000
564 1 12.7131108909 8.7676631850 -1.8075000000
565 1 12.2747277018 10.5211957423 0.0000000000
566 1 11.8363445126 12.2747282996 1.8075000000
567 1 11.3979613235 14.0282608569 3.6150000000
568 1 10.9595781343 15.7817934142 5.4225000000
569 1 10.5211949452 17.5353259715 7.2300000000
570 1 14.9050266373 7.4525138169 -5.4225000000
571 1 14.4666434482 9.2060463742 -3.6150000000
572 1 14.0282602590 10.9595789314 -1.8075000000
573 1 13.5898770699 12.7131114887 0.0000000000
574 1 13.1514938808 14.4666440460 1.8075000000
575 1 12.7131106916 16.2201766033 3.6150000000
576 1 12.2747275025 17.9737091606 5.4225000000
577 1 11.8363443133 19.7272417179 7.2300000000
578 1 16.2201760055 9.6444295633 -5.4225000000
579 1 15.7817928163 11.3979621206 -3.6150000000
580 1 15.3434096272 13.1514946779 -1.8075000000
581 1 14.9050264381 14.9050272352 0.0000000000
582 1 14.4666432489 16.6585597925 1.8075000000
583 1 14.0282600598 18.4120923497 3.6150000000
584 1 13.5898768706 20.1656249070 5.4225000000
585 1 13.1514936815 21.9191574643 7.2300000000
586 1 17.5353253736 11.8363453097 -5.4225000000
587 1 17.0969421845 13.5898778670 -3.6150000000
588 1 16.6585589953 15.3434104243 -1.8075000000
589 1 16.2201758062 17.0969429816 0.0000000000
590 1 15.7817926171 18.8504755389 1.8075000000
591 1 15.3434094279 20.6040080962 3.6150000000
592 1 14.9050262388 22.3575406535 5.4225000000
593 1 14.4666430496 24.1110732108 7.2300000000
594 1 18.8504747418 14.0282610562 -5.4225000000
595 1 18.4120915526 15.7817936134 -3.6150000000
596 1 17.9737083635 17.5353261707 -1.8075000000
597 1 17.5353251743 19.2888587280 0.0000000000
598 1 17.0969419852 21.0423912853 1.8075000000
599 1 16.6585587961 22.7959238426 3.6150000000
600 1 16.2201756069 24.5494563999 5.4225000000
601 1 15.7817924178 26.3029889572 7.2300000000
602 1 20.1656241099 16.2201768026 -5.4225000000
603 1 19.7272409208 17.9737093599 -3.6150000000
604 1 19.2888577316 19.7272419172 -1.8075000000
605 1 18.8504745425 21.4807744745 0.0000000000
606 1 18.4120913534 23.2343070318 1.8075000000
607 1 17.9737081642 24.9878395890 3.6150000000
608 1 17.5353249751 26.7413721463 5.4225000000
609 1 17.0969417859 28.4949047036 7.2300000000
610 1 21.4807734781 18.4120925490 -5.4225000000
611 1 21.0423902889 20.1656251063 -3.6150000000
612 1 20.6040070998 21.9191576636 -1.8075000000
613 1 20.1656239106 23.6726902209 0.0000000000
614 1 19.7272407215 25.4262227782 1.8075000000
615 1 19.2888575324 27.1797553355 3.6150000000
616 1 18.8504743432 28.9332878928 5.4225000000
617 1 22.7959228462 20.6040082955 -5.4225000000
618 1 22.3575396571 22.3575408527 -3.6150000000
619 1 21.9191564679 24.1110734100 -1.8075000000
620 1 21.4807732788 25.8646059673 0.0000000000
621 1 21.0423900897 27.6181385246 1.8075000000
622 1 20.6040069005 29.3716710819 3.6150000000
623 1 24.1110722144 22.7959240419 -5.4225000000
624 1 23.6726890252 24.5494565992 -3.6150000000
625 1 23.2343058361 26.3029891565 -1.8075000000
626 1 22.7959226469 28.0565217138 0.0000000000
627 1 25.4262215825 24.9878397883 -5.4225000000
628 1 24.9878383934 26.7413723456 -3.6150000000
629 1 24.5494552042 28.4949049029 -1.8075000000
630 1 26.7413709507 27.1797555348 -5.4225000000
631 1 26.3029877615 28.9332880920 -3.6150000000
632 1 28.0565203188 29.3716712812 -5.4225000000
633 1 0.0000005978 -22.3575402549 -5.4225000000
634 1 1.3151499660 -20.1656245085 -5.4225000000
635 1 0.8767667768 -18.4120919512 -3.6150000000
636 1 0.4383835877 -16.6585593939 -1.8075000000
637 1 0.0000003986 -14.9050268366 0.0000000000
638 1 2.6302993341 -17.9737087620 -5.4225000000
639 1 2.1919161450 -16.2201762048 -3.6150000000