LAMMPS data file via write_data, version 29 Aug 2024, timestep = 637, units = metal

14624 atoms
2 atom types

-100.1 100.1 xlo xhi
-29.8100853 29.8100853 ylo yhi
-7.23 7.23 zlo zhi
0 0 0 xy xz yz

Masses

1 63.55
2 63.55

Atoms # atomic

1 1 0.6644224459273289 28.298043374803097 -6.775260930871115 0 0 0
2 1 0.2897227528523558 22.639966949963732 -6.775260993148633 0 0 0
3 1 1.355226440467419 24.798932814278583 -6.775260951626628 0 0 0
4 1 1.0007380642469599 26.421605230565152 -4.967760943258376 0 0 0
5 1 0.6644224413212783 28.298043373217443 -3.1602609158190784 0 0 0
6 1 2.774810734357956 26.933227429035153 -6.775260972964582 0 0 0
7 1 2.360216657913881 28.68416303090422 -4.96776097272804 0 0 0
8 1 4.068620180178527 29.157310837647078 -6.775260978197903 0 0 0
9 1 1.000738093598045 18.969083887168413 -6.775260948215111 0 0 0
10 1 0.6644224440084088 20.84552205577658 -4.9677608875794546 0 0 0
11 1 0.28972274900088735 22.63996693216794 -3.160260994485096 0 0 0
12 1 2.360216662295514 21.231641715322628 -6.775260978643415 0 0 0
13 1 1.8936070330233292 23.08116030021176 -4.967760995841719 0 0 0
14 1 1.3552264430256002 24.798932821913628 -3.1602609533265054 0 0 0
15 1 1.000738058859838 26.421605235268682 -1.3527609450020874 0 0 0
16 1 0.6644224386665627 28.298043372967154 0.4547390861944414 0 0 0
17 1 3.6170030978224474 23.468447783853986 -6.775260989971348 0 0 0
18 1 3.208368319681611 25.212697241757365 -4.967760969687212 0 0 0
19 1 2.7748107343652038 26.93322742732438 -3.1602609745188457 0 0 0
20 1 2.360216655696931 28.684163033173018 -1.3527609744616933 0 0 0
21 1 4.967176195685198 25.64064234516456 -6.775260949630981 0 0 0
22 1 4.532638460528062 27.393226484017564 -4.967760955272411 0 0 0
23 1 4.068620179753836 29.157310837853682 -3.160260979074238 0 0 0
24 1 6.270616801958241 27.841061400232487 -6.77526093281535 0 0 0
25 1 5.821172119591097 29.596191209336713 -4.967760953076712 0 0 0
26 1 0.6644224614971108 13.393000737910665 -6.775260908236834 0 0 0
27 1 0.28972276609535186 15.187445616269013 -4.967760991273646 0 0 0
28 1 1.8936070360941386 15.628638973005717 -6.775260996697327 0 0 0
29 1 1.3552264487709635 17.346411509381138 -4.9677609538738885 0 0 0
30 1 1.000738070738791 18.96908391066903 -3.1602609497799072 0 0 0
31 1 0.6644224437348214 20.845522056263516 -1.3527609088315844 0 0 0
32 1 0.28972274031653455 22.639966926855475 0.45473900818096585 0 0 0
33 1 3.208368317095065 17.76017592813127 -6.775260970999107 0 0 0
34 1 2.774810738985522 19.48070609883106 -4.967760972583711 0 0 0
35 1 2.3602166536099105 21.231641715016213 -3.1602609790350074 0 0 0
36 1 1.8936070356636776 23.081160299911158 -1.3527609969907162 0 0 0
37 1 1.3552264439604471 24.79893282591539 0.4547390475645142 0 0 0
38 1 1.000738057768089 26.42160523785275 2.2622390537784187 0 0 0
39 1 0.6644224438074673 28.298043374637867 4.069739068211546 0 0 0
40 1 4.5326384694907205 19.94070516231866 -6.7752609556563534 0 0 0
41 1 4.068620185880306 21.704789519954186 -4.967760977973501 0 0 0
42 1 3.6170030979531163 23.468447784745432 -3.1602609887607525 0 0 0
43 1 3.2083683213669474 25.21269724022449 -1.3527609700175267 0 0 0
44 1 2.774810734470023 26.93322742547863 0.45473902730656335 0 0 0
45 1 2.3602166529736905 28.68416303025465 2.262239028719223 0 0 0
46 1 5.821172118963133 22.143669889240808 -6.77526095319486 0 0 0
47 1 5.388984744297261 23.89050605405812 -4.967760944157152 0 0 0
48 1 4.967176195381796 25.640642345155772 -3.1602609488067226 0 0 0
49 1 4.53263846255733 27.393226483416353 -1.352760955395807 0 0 0
50 1 4.068620181008129 29.15731083880652 0.45473902079435174 0 0 0
51 1 7.150395996968186 24.327099476463044 -6.775260928627854 0 0 0
52 1 6.715862642020383 26.080772759713494 -4.967760927900077 0 0 0
53 1 6.270616802212231 27.841061400203156 -3.160260931717284 0 0 0
54 1 5.821172120385214 29.596191208027985 -1.3527609525895714 0 0 0
55 1 8.462893626169588 26.522812046755345 -6.7752608892079635 0 0 0
56 1 8.020453861927805 28.27839431194978 -4.96776091034739 0 0 0
57 1 9.776098548758895 28.71466879336938 -6.77526085699969 0 0 0
58 1 0.2897227310180739 7.734924307310269 -6.775260994441714 0 0 0
59 1 1.3552264454806817 9.893890184199844 -6.775260956286318 0 0 0
60 1 1.0007380635688037 11.51656259744652 -4.967760949667552 0 0 0
61 1 0.6644224454670109 13.393000733576496 -3.1602609225378178 0 0 0
62 1 0.28972275350852783 15.187445610184387 -1.3527609889241725 0 0 0
63 1 2.7748107357109433 12.028184782367628 -6.775260975221838 0 0 0
64 1 2.360216653394957 13.779120393449364 -4.967760974998928 0 0 0
65 1 1.893607038450284 15.628638975035297 -3.1602610003372935 0 0 0
66 1 1.355226449880945 17.346411510378726 -1.3527609483699405 0 0 0
67 1 1.000738079382515 18.96908390352068 0.45473905158066746 0 0 0
68 1 0.6644224545535025 20.845522061029992 2.2622390708208573 0 0 0
69 1 0.28972274231237805 22.639966937432387 4.069739009540555 0 0 0
70 1 4.06862019133888 14.252268198570672 -6.775260979239435 0 0 0
71 1 3.6170031051537848 16.015926460043776 -4.967760987814622 0 0 0
72 1 3.2083683233446294 17.76017592490705 -3.1602609716200316 0 0 0
73 1 2.774810739318127 19.480706098227348 -1.3527609709708661 0 0 0
74 1 2.3602166509492264 21.231641714323683 0.45473902720198395 0 0 0
75 1 1.8936070339089923 23.081160298093888 2.2622390048961205 0 0 0
76 1 1.3552264423176723 24.798932820500514 4.069739048425194 0 0 0
77 1 1.0007380612714343 26.421605234068327 5.877239055509668 0 0 0
78 1 5.388984753161452 16.437984727754934 -6.775260945221506 0 0 0
79 1 4.96717620332096 18.18812102510527 -4.967760947274122 0 0 0
80 1 4.532638471139521 19.940705160485276 -3.160260956133225 0 0 0
81 1 4.068620187553549 21.70478952134656 -1.352760977721749 0 0 0
82 1 3.617003098710626 23.468447785148125 0.45473901000271216 0 0 0
83 1 3.2083683213301413 25.212697241701388 2.262239029088156 0 0 0
84 1 2.774810734471018 26.9332274270765 4.0697390257083255 0 0 0
85 1 2.3602166529751827 28.68416303312741 5.877239030131442 0 0 0
86 1 6.715862644435333 18.62825143754311 -6.775260928296709 0 0 0
87 1 6.270616803091272 20.38854007830052 -4.967760931779193 0 0 0
88 1 5.8211721191607495 22.143669889388068 -3.1602609530268944 0 0 0
89 1 5.388984742996286 23.890506053888057 -1.3527609442751236 0 0 0
90 1 4.967176194769095 25.640642345165187 0.4547390507987499 0 0 0
91 1 4.532638461651814 27.39322648282926 2.2622390448068077 0 0 0
92 1 4.068620181091106 29.15731083847623 4.069739020715634 0 0 0
93 1 8.0204538639491 20.8258729909784 -6.77526091077225 0 0 0
94 1 7.582969786187078 22.577608377020294 -4.9677609084777 0 0 0
95 1 7.150395997119901 24.327099476361436 -3.1602609292370314 0 0 0
96 1 6.715862641370293 26.080772760712843 -1.3527609279921093 0 0 0
97 1 6.270616802000049 27.841061400338585 0.4547390673122215 0 0 0
98 1 5.821172119487741 29.59619120935132 2.2622390470750475 0 0 0
99 1 9.340233417667932 23.01423123778253 -6.775260869444389 0 0 0
100 1 8.90367184046336 24.767275999627817 -4.967760878514063 0 0 0
101 1 8.462893626074532 26.522812046801004 -3.1602608895304223 0 0 0
102 1 8.020453861167809 28.278394311986414 -1.3527609104866085 0 0 0
103 1 10.654804936067336 25.20719240039816 -6.775260817150119 0 0 0
104 1 10.2145813476276 26.96158429783483 -4.9677608402565 0 0 0
105 1 9.776098548627928 28.714668793429777 -3.1602608573486553 0 0 0
106 1 11.968701491968972 27.399285943577876 -6.775260775275194 0 0 0
107 1 11.531235031268565 29.15219007250221 -4.9677607791764995 0 0 0
108 1 13.284944628653832 29.590610786304257 -6.775260721827997 0 0 0
109 1 1.0007380653101308 4.064041264602761 -6.775260950177281 0 0 0
110 1 0.6644224393504174 5.940479405019577 -4.967760902396076 0 0 0
111 1 0.2897227276821468 7.734924308250523 -3.1602609941965167 0 0 0
112 1 2.360216664043463 6.3265990629367685 -6.775260978728819 0 0 0
113 1 1.89360703886814 8.176117663733098 -4.967760990394498 0 0 0
114 1 1.355226445966622 9.89389016475587 -3.160260954147651 0 0 0
115 1 1.0007380565262594 11.516562604178677 -1.3527609378771068 0 0 0
116 1 0.6644224452449521 13.39300073200383 0.45473905593358827 0 0 0
117 1 0.28972275399202374 15.18744562092743 2.262239012840701 0 0 0
118 1 3.6170030991796267 8.563405140071172 -6.775260989674503 0 0 0
119 1 3.2083683234393163 10.307654593826836 -4.967760970840897 0 0 0
120 1 2.7748107441305336 12.028184785711186 -3.160260974679047 0 0 0
121 1 2.3602166571004943 13.779120392520223 -1.352760970604452 0 0 0
122 1 1.8936070407412302 15.628638977385958 0.4547390011348201 0 0 0
123 1 1.3552264483477217 17.34641150947999 2.262239051098478 0 0 0
124 1 1.0007380915527762 18.969083891786564 4.069739054991348 0 0 0
125 1 0.6644224548897455 20.845522060049948 5.877239074214519 0 0 0
126 1 4.967176203741204 10.735599697807007 -6.775260948805707 0 0 0
127 1 4.532638473514922 12.48818383790498 -4.967760953741602 0 0 0
128 1 4.068620190482321 14.252268196165925 -3.1602609785090134 0 0 0
129 1 3.617003104863258 16.01592645984505 -1.3527609870552824 0 0 0
130 1 3.208368320358389 17.760175924612046 0.45473902772560193 0 0 0
131 1 2.7748107371445627 19.480706099713945 2.2622390289227132 0 0 0
132 1 2.3602166546906744 21.23164171405112 4.069739027476098 0 0 0
133 1 1.8936070326304986 23.08116029860771 5.877239007004667 0 0 0
134 1 6.270616806926839 12.936018753457379 -6.77526093256799 0 0 0
135 1 5.821172123985136 14.69114856553239 -4.9677609532303375 0 0 0
136 1 5.3889847527014325 16.437984729674188 -3.160260945249395 0 0 0
137 1 4.967176203259555 18.18812102546475 -1.3527609486065555 0 0 0
138 1 4.53263847210502 19.94070516066183 0.4547390439015515 0 0 0
139 1 4.068620187128531 21.70478952096199 2.2622390225971083 0 0 0
140 1 3.617003098301282 23.46844778506264 4.069739010395742 0 0 0
141 1 3.208368321649246 25.21269724073967 5.877239029204105 0 0 0
142 1 7.582969789810406 15.125087050663286 -6.775260908874778 0 0 0
143 1 7.150396001159308 16.87457815066639 -4.967760928391723 0 0 0
144 1 6.715862643587741 18.628251437205588 -3.160260928226896 0 0 0
145 1 6.270616802733755 20.388540078253097 -1.3527609314060525 0 0 0
146 1 5.821172118650779 22.143669889250344 0.4547390468298928 0 0 0
147 1 5.388984743698586 23.890506053656278 2.2622390557865963 0 0 0
148 1 4.967176195138151 25.640642345144553 4.0697390512125 0 0 0
149 1 4.532638463097484 27.39322648279774 5.877239044836382 0 0 0
150 1 8.903671846675337 17.314754674215603 -6.775260878682162 0 0 0
151 1 8.46289363044589 19.070290723863696 -4.967760889639643 0 0 0
152 1 8.020453864053962 20.825872991367813 -3.1602609105788457 0 0 0
153 1 7.582969786469079 22.57760837680112 -1.352760908667333 0 0 0
154 1 7.150395997223441 24.32709947636631 0.45473907127534097 0 0 0
155 1 6.715862641755777 26.08077276011763 2.2622390720408294 0 0 0
156 1 6.270616801885652 27.841061400158605 4.069739068119854 0 0 0
157 1 5.821172120493031 29.59619120801241 5.877239046887825 0 0 0
158 1 10.214581346479136 19.5090629733734 -6.775260840280416 0 0 0
159 1 9.77609854530587 21.262147471261994 -4.967760857002064 0 0 0
160 1 9.340233417549669 23.01423123761877 -3.1602608691690635 0 0 0
161 1 8.903671840919898 24.76727599941125 -1.3527608783366465 0 0 0
162 1 8.462893626175173 26.522812046751792 0.4547391107431575 0 0 0
163 1 8.020453861927649 28.278394311814107 2.2622390895896407 0 0 0
164 1 11.531235029357305 21.6996687515396 -6.775260779277227 0 0 0
165 1 11.093850398882694 23.45291643455384 -4.967760802310995 0 0 0
166 1 10.65480493619792 25.20719240048835 -3.1602608168821167 0 0 0
167 1 10.214581347822957 26.96158429754114 -1.3527608402458386 0 0 0
168 1 9.776098548808633 28.714668793363114 0.45473914297179857 0 0 0
169 1 12.846432975936352 23.89186585000851 -6.775260726315083 0 0 0
170 1 12.407324937392659 25.645823220429303 -4.967760762957559 0 0 0
171 1 11.968701491896397 27.39928594352676 -3.160260775187438 0 0 0
172 1 11.53123503146972 29.15219007243351 -1.3527607791267526 0 0 0
173 1 14.160906949225037 26.08395279804508 -6.775260699916257 0 0 0
174 1 13.722853754147494 27.8372536108993 -4.9677607102304435 0 0 0
175 1 13.284944628737449 29.590610786345632 -3.1602607217020187 0 0 0
176 1 15.476470203673315 28.27558664546441 -6.775260646701423 0 0 0
177 1 0.664422447637719 -1.5120419209283718 -6.775260900084827 0 0 0
178 1 0.28972275477778453 0.2824029632725953 -4.967760995184636 0 0 0
179 1 1.8936070385962864 0.7235963286508493 -6.77526099160327 0 0 0
180 1 1.355226443665856 2.441368842552709 -4.967760954796776 0 0 0
181 1 1.0007380513103072 4.064041278908913 -3.1602609479610697 0 0 0
182 1 0.6644224406759491 5.940479405395006 -1.3527609117867614 0 0 0
183 1 0.28972271372563796 7.734924294010401 0.4547390077041255 0 0 0
184 1 3.2083683217694414 2.855133269366103 -6.775260971441294 0 0 0
185 1 2.7748107375654882 4.575663463955049 -4.967760973575823 0 0 0
186 1 2.3602166607051487 6.326599065137874 -3.1602609781307316 0 0 0
187 1 1.893607041549572 8.176117663742541 -1.3527610037557578 0 0 0
188 1 1.3552264478597351 9.893890191803496 0.4547390498566087 0 0 0
189 1 1.0007380772487409 11.51656258322146 2.262239050367485 0 0 0
190 1 0.664422462591304 13.39300074035381 4.0697390716810276 0 0 0
191 1 0.28972276304389766 15.187445624068271 5.877239008779204 0 0 0
192 1 4.532638459400815 5.0356625180448695 -6.775260955664786 0 0 0
193 1 4.068620179679797 6.799746869366853 -4.9677609781281715 0 0 0
194 1 3.617003092693892 8.56340513994206 -3.160260989584034 0 0 0
195 1 3.208368325150346 10.307654592644486 -1.3527609694851632 0 0 0
196 1 2.7748107379042892 12.028184779495984 0.4547390267453072 0 0 0
197 1 2.3602166608811785 13.779120392738346 2.2622390345503045 0 0 0
198 1 1.8936070360451822 15.628638971955635 4.0697390023596745 0 0 0
199 1 1.3552264478675369 17.346411511645126 5.877239049629565 0 0 0
200 1 5.821172120758604 7.238627240652807 -6.775260954252807 0 0 0
201 1 5.388984748743255 8.985463408590174 -4.967760946094526 0 0 0
202 1 4.967176202566634 10.735599700831553 -3.160260949830843 0 0 0
203 1 4.532638472336927 12.488183838621449 -1.3527609570125052 0 0 0
204 1 4.068620190762658 14.252268198889656 0.45473902065644617 0 0 0
205 1 3.6170031049905305 16.015926459038706 2.262239010553495 0 0 0
206 1 3.208368318174948 17.76017592870583 4.06973902863504 0 0 0
207 1 2.774810736030048 19.48070609967593 5.877239028051906 0 0 0
208 1 7.150395997204072 9.422056825997263 -6.775260929345522 0 0 0
209 1 6.715862643949521 11.175730110997915 -4.967760928149301 0 0 0
210 1 6.2706168057281815 12.936018752461823 -3.160260932581764 0 0 0
211 1 5.821172123872557 14.691148565307746 -1.3527609522749782 0 0 0
212 1 5.3889847524460635 16.43798472834295 0.45473905507820034 0 0 0
213 1 4.967176204230995 18.188121025582628 2.2622390518111493 0 0 0
214 1 4.532638471309198 19.940705160521606 4.0697390435980365 0 0 0
215 1 4.068620185244981 21.704789520444162 5.87723902416479 0 0 0
216 1 8.462893633009315 11.617769397259355 -6.775260889853793 0 0 0
217 1 8.020453868176006 13.37335166418853 -4.967760910969705 0 0 0
218 1 7.582969790376538 15.125087051401007 -3.160260908985608 0 0 0
219 1 7.1503960010711864 16.874578150530223 -1.3527609289413385 0 0 0
220 1 6.715862643430015 18.628251437861085 0.4547390719494202 0 0 0
221 1 6.270616802385135 20.388540078185766 2.262239068073377 0 0 0
222 1 5.8211721191502335 22.143669889497485 4.0697390462118355 0 0 0
223 1 5.388984743252692 23.890506054381714 5.87723905576895 0 0 0
224 1 9.77609855011076 13.809626143681168 -6.775260857245097 0 0 0
225 1 9.340233423254944 15.561709911311521 -4.9677608691600295 0 0 0
226 1 8.903671846563782 17.314754673661067 -3.1602608786396424 0 0 0
227 1 8.462893630554404 19.070290723915388 -1.3527608892308611 0 0 0
228 1 8.020453864141317 20.825872991015675 0.45473908922644546 0 0 0
229 1 7.582969786136985 22.57760837718025 2.262239091619289 0 0 0
230 1 7.150395997144528 24.327099476197258 4.069739070794196 0 0 0
231 1 6.715862640950306 26.080772760648447 5.877239072255172 0 0 0
232 1 11.093850401766474 16.00039510811838 -6.775260802355413 0 0 0
233 1 10.654804937514626 17.754671074711343 -4.967760816910131 0 0 0
234 1 10.21458134655343 19.509062973546744 -3.1602608403224846 0 0 0
235 1 9.776098545101007 21.26214747129872 -1.3527608571305598 0 0 0
236 1 9.340233417620283 23.014231237807575 0.4547391305685043 0 0 0
237 1 8.90367184055502 24.767275999545706 2.262239121436087 0 0 0
238 1 8.462893626213244 26.52281204682731 4.069739110412993 0 0 0
239 1 8.020453861208239 28.278394312016413 5.877239089613211 0 0 0
240 1 12.407324939325605 18.193301896119056 -6.775260762694815 0 0 0
241 1 11.968701491846218 19.94676462057384 -4.967760775278311 0 0 0
242 1 11.531235029266455 21.699668751335057 -3.1602607793440853 0 0 0
243 1 11.093850398717393 23.452916434710236 -1.3527608022543471 0 0 0
244 1 10.65480493610437 25.20719240040886 0.4547391828628774 0 0 0
245 1 10.214581347627004 26.96158429784739 2.2622391597513096 0 0 0
246 1 9.776098548663853 28.714668793343872 4.069739142670865 0 0 0
247 1 13.722853750556425 20.384732287598265 -6.7752607100773865 0 0 0
248 1 13.284944623347059 22.13808946438726 -4.967760721755769 0 0 0
249 1 12.846432975862442 23.891865850034147 -3.1602607264590663 0 0 0
250 1 12.407324937252696 25.645823220488335 -1.352760763059689 0 0 0
251 1 11.96870149195641 27.399285943608366 0.45473922470567907 0 0 0
252 1 11.531235031284794 29.152190072506382 2.262239220814357 0 0 0
253 1 15.038101580693436 22.57667463223873 -6.7752606484243305 0 0 0
254 1 14.599444821549099 24.330393088744078 -4.967760666713112 0 0 0
255 1 14.160906949193503 26.083952797945184 -3.160260700102818 0 0 0
256 1 13.722853753962752 27.8372536108792 -1.3527607102149208 0 0 0
257 1 13.284944628670928 29.590610786321374 0.45473927817968723 0 0 0
258 1 16.35289498213062 24.768684295508326 -6.775260607965694 0 0 0
259 1 15.914628955824128 26.52213782132355 -4.967760628369782 0 0 0
260 1 15.476470203717724 28.275586645457278 -3.1602606467444954 0 0 0
261 1 17.66816776341841 26.960465977668935 -6.775260538264211 0 0 0
262 1 17.229825788477044 28.714022944107906 -4.967760566193086 0 0 0
263 1 18.983189544655502 29.152418263592214 -6.775260451355125 0 0 0
264 1 0.2897227269588427 -7.170118377378895 -6.775260995205703 0 0 0
265 1 1.3552264495466062 -5.011152447556228 -6.775260952514463 0 0 0
266 1 1.000738070985932 -3.3884800661194596 -4.9677609614803275 0 0 0
267 1 0.6644224406543913 -1.5120419200072028 -3.1602609087641587 0 0 0
268 1 0.2897227474367128 0.2824029642294619 -1.3527609964704943 0 0 0
269 1 2.7748107357201377 -2.876857884602064 -6.775260970907788 0 0 0
270 1 2.3602166601247205 -1.1259222607262735 -4.967760978951305 0 0 0
271 1 1.8936070389559347 0.7235963281034117 -3.1602609966757034 0 0 0
272 1 1.35522644440114 2.4413688484757152 -1.3527609500121618 0 0 0
273 1 1.0007380635333476 4.06404126821673 0.45473905005004767 0 0 0
274 1 0.6644224532352183 5.940479411399945 2.2622390791224105 0 0 0
275 1 0.28972273737910825 7.734924311353229 4.069739006972011 0 0 0
276 1 4.068620191253842 -0.6527744534379458 -6.775260975027396 0 0 0
277 1 3.6170030993263538 1.110883812754036 -4.967760991102513 0 0 0
278 1 3.208368327617478 2.855133267275935 -3.160260971296831 0 0 0
279 1 2.774810735912581 4.575663462603938 -1.3527609706596797 0 0 0
280 1 2.360216659872208 6.3265990612359 0.4547390259028089 0 0 0
281 1 1.8936070381458592 8.176117659971009 2.262239012641377 0 0 0
282 1 1.3552264454688157 9.893890171440933 4.069739048329736 0 0 0
283 1 1.0007380847607692 11.516562577492142 5.877239057920472 0 0 0
284 1 5.388984744178259 1.5329420788129724 -6.7752609449444945 0 0 0
285 1 4.967176196141196 3.283078373027525 -4.96776094758546 0 0 0
286 1 4.53263846123113 5.035662516127214 -3.1602609569532234 0 0 0
287 1 4.06862018094759 6.799746870953729 -1.352760977584855 0 0 0
288 1 3.6170031000411313 8.563405141105864 0.4547390087048455 0 0 0
289 1 3.2083683196075015 10.30765459729567 2.2622390276208604 0 0 0
290 1 2.7748107391308707 12.028184786196586 4.069739025805307 0 0 0
291 1 2.3602166574033987 13.779120393106869 5.877239026035862 0 0 0
292 1 6.715862644179765 3.7232087864713357 -6.775260928514524 0 0 0
293 1 6.270616803092423 5.483497430865935 -4.967760931787721 0 0 0
294 1 5.8211721225625865 7.2386272390346384 -3.1602609534839314 0 0 0
295 1 5.388984747973922 8.985463408018507 -1.3527609429961331 0 0 0
296 1 4.967176202462099 10.73559969771318 0.4547390501804047 0 0 0
297 1 4.532638472097574 12.48818383881368 2.2622390457782435 0 0 0
298 1 4.068620189089486 14.252268195985675 4.0697390199980426 0 0 0
299 1 3.617003106341727 16.01592645929507 5.877239012234692 0 0 0
300 1 8.02045386139497 5.920830339714126 -6.775260911386888 0 0 0
301 1 7.582969785522863 7.672565724651644 -4.9677609085806145 0 0 0
302 1 7.150395998777327 9.422056825919459 -3.160260929541052 0 0 0
303 1 6.7158626445432645 11.175730111176417 -1.3527609283450455 0 0 0
304 1 6.270616807363211 12.936018753614693 0.4547390673292546 0 0 0
305 1 5.821172124099718 14.691148565660836 2.262239046871421 0 0 0
306 1 5.388984753846387 16.43798472924426 4.069739055310872 0 0 0
307 1 4.96717620441818 18.188121024958544 5.877239050961125 0 0 0
308 1 9.340233422887422 8.109188585814646 -6.775260869867796 0 0 0
309 1 8.903671846923586 9.862233348408122 -4.967760878775862 0 0 0
310 1 8.462893632904695 11.617769396680803 -3.1602608896630326 0 0 0
311 1 8.020453867999422 13.373351664038562 -1.3527609103111273 0 0 0
312 1 7.582969789905405 15.125087050529903 0.4547390910789124 0 0 0
313 1 7.150396000953961 16.87457815060227 2.2622390717065164 0 0 0
314 1 6.71586264325434 18.628251437209773 4.069739071935441 0 0 0
315 1 6.2706168032282505 20.388540078201107 5.877239068279603 0 0 0
316 1 10.654804938918844 10.302149747977655 -6.77526081742769 0 0 0
317 1 10.214581349997118 12.056541646329752 -4.967760840717912 0 0 0
318 1 9.776098550422049 13.8096261440629 -3.1602608572787294 0 0 0
319 1 9.340233423284587 15.561709911438658 -1.3527608695155071 0 0 0
320 1 8.903671846906022 17.314754674096438 0.45473912127197347 0 0 0
321 1 8.462893630705011 19.070290723908908 2.2622391104217052 0 0 0
322 1 8.020453863998199 20.82587299141714 4.069739089566634 0 0 0
323 1 7.5829697864419785 22.57760837671012 5.877239091311337 0 0 0
324 1 11.968701495753479 12.494243293488712 -6.775260775309963 0 0 0
325 1 11.53123503327059 14.247147423910658 -4.967760779327064 0 0 0
326 1 11.093850401662323 16.000395107890792 -3.1602608023384655 0 0 0
327 1 10.654804937556563 17.754671074584532 -1.352760816665572 0 0 0
328 1 10.214581346395647 19.509062973376114 0.45473915976509965 0 0 0
329 1 9.776098545273513 21.262147471196652 2.2622391429553725 0 0 0
330 1 9.34023341750381 23.01423123767776 4.069739130793571 0 0 0
331 1 8.903671840992288 24.767275999395043 5.877239121577051 0 0 0
332 1 13.284944627708484 14.68556813802238 -6.7752607215751075 0 0 0
333 1 12.846432979546648 16.439344524370778 -4.967760726373113 0 0 0
334 1 12.40732493935478 18.19330189627848 -3.160260762652801 0 0 0
335 1 11.968701491985996 19.946764620506382 -1.3527607754507351 0 0 0
336 1 11.53123502942124 21.69966875154422 0.4547392207471189 0 0 0
337 1 11.093850398875674 23.452916434555387 2.262239197680023 0 0 0
338 1 10.65480493615766 25.207192400500585 4.0697391831065906 0 0 0
339 1 10.214581347783707 26.9615842975228 5.877239159723595 0 0 0
340 1 14.599444822367005 16.877871763669088 -6.775260666198678 0 0 0
341 1 14.160906947649323 18.631431474044316 -4.967760700053659 0 0 0
342 1 13.722853750535492 20.384732287511742 -3.160260709996669 0 0 0
343 1 13.284944623524623 22.138089464386365 -1.352760721650075 0 0 0
344 1 12.846432975917097 23.891865849975797 0.4547392736695674 0 0 0
345 1 12.40732493738966 25.64582322042244 2.262239237045638 0 0 0
346 1 11.968701491871059 27.39928594353516 4.069739224815067 0 0 0
347 1 11.531235031422284 29.152190072400916 5.877239220900008 0 0 0
348 1 15.914628955072203 19.069616498590403 -6.7752606277641245 0 0 0
349 1 15.476470201866462 20.82306532214727 -4.967760646716246 0 0 0
350 1 15.038101580752823 22.576674632280042 -3.160260648310319 0 0 0
351 1 14.599444821665884 24.330393088732738 -1.3527606668269634 0 0 0
352 1 14.160906949256045 26.083952798031635 0.45473930006916585 0 0 0
353 1 13.722853754131847 27.83725361090968 2.262239289737032 0 0 0
354 1 13.284944628747894 29.59061078628179 4.069739278268925 0 0 0
355 1 17.229825785315626 21.26150162107567 -6.7752605656999645 0 0 0
356 1 16.79135434531365 23.01511694611781 -4.9677605830303815 0 0 0
357 1 16.352894982143198 24.768684295484707 -3.1602606078505975 0 0 0
358 1 15.914628955916328 26.522137821294333 -1.3527606283303906 0 0 0
359 1 15.476470203665514 28.275586645490105 0.45473935327848175 0 0 0
360 1 18.54477999934204 23.45345641658967 -6.775260493300454 0 0 0
361 1 18.106443604823326 25.206968347009624 -4.967760508080689 0 0 0
362 1 17.668167763440167 26.96046597768908 -3.160260538213182 0 0 0
363 1 17.229825788490288 28.714022944144393 -1.3527605661693463 0 0 0
364 1 19.85993447525547 25.645304679593618 -6.77526040515398 0 0 0
365 1 19.42158964366473 27.398847451427184 -4.967760415965613 0 0 0
366 1 18.983189544721583 29.15241826354354 -3.1602604513418826 0 0 0
367 1 21.175001799054144 27.83721934878471 -6.775260322343998 0 0 0
368 1 20.736618435950035 29.590770982109273 -4.967760359271364 0 0 0
369 1 1.000738069977018 -10.841001398944552 -6.775260950009567 0 0 0
370 1 0.6644224362595565 -8.964563252584139 -4.967760901228502 0 0 0
371 1 0.2897227585177262 -7.1701183473031165 -3.1602609968292676 0 0 0
372 1 2.3602166649640424 -8.57844359556406 -6.775260980453435 0 0 0
373 1 1.8936070404857333 -6.728925003197151 -4.96776097643101 0 0 0
374 1 1.3552264463530577 -5.011152497063446 -3.1602609501485994 0 0 0
375 1 1.0007380800205823 -3.3884800751760054 -1.3527609398082352 0 0 0
376 1 0.6644224462588397 -1.5120419211485299 0.45473910478588486 0 0 0
377 1 0.28972275600568764 0.28240296368976914 2.262239003989293 0 0 0
378 1 3.6170031089184675 -6.341637522166575 -6.775260989747331 0 0 0
379 1 3.2083683228274538 -4.597388058116248 -4.967760973961501 0 0 0
380 1 2.774810748248271 -2.876857872755661 -3.1602609685027567 0 0 0
381 1 2.3602166657201025 -1.125922262346588 -1.3527609825818776 0 0 0
382 1 1.8936070397683409 0.7235963296374379 0.45473900963440533 0 0 0
383 1 1.3552264434227652 2.4413688451330167 2.2622390476191936 0 0 0
384 1 1.0007380689360161 4.064041262735625 4.069739054867241 0 0 0
385 1 0.6644224509620926 5.940479409425951 5.877239082076307 0 0 0
386 1 4.967176203767536 -4.169442958951802 -6.775260948359493 0 0 0
387 1 4.532638473023425 -2.4168588183043447 -4.967760953949529 0 0 0
388 1 4.068620186764377 -0.6527744595788398 -3.1602609751964423 0 0 0
389 1 3.6170031013646025 1.1108838125658345 -1.3527609900000452 0 0 0
390 1 3.2083683222516726 2.8551332688379993 0.45473902827401663 0 0 0
391 1 2.774810734703493 4.575663463945435 2.2622390268437913 0 0 0
392 1 2.36021665616137 6.326599066568786 4.069739023754668 0 0 0
393 1 1.8936070367546733 8.176117660860253 5.8772389989427545 0 0 0
394 1 6.2706168055790386 -1.969023900296495 -6.775260931440965 0 0 0
395 1 5.8211721208941185 -0.21389408906765794 -4.967760955752824 0 0 0
396 1 5.388984744318265 1.5329420828312301 -3.1602609436746616 0 0 0
397 1 4.967176196076139 3.2830783720767265 -1.352760950364837 0 0 0
398 1 4.532638460480982 5.035662517217116 0.45473904385912606 0 0 0
399 1 4.068620181024116 6.799746870287269 2.2622390216601507 0 0 0
400 1 3.6170030943545726 8.563405139164917 4.069739009383879 0 0 0
401 1 3.208368317956129 10.307654597513288 5.877239029977711 0 0 0
402 1 7.582969787009731 0.22004439799125564 -6.775260908732962 0 0 0
403 1 7.150395998118839 1.9695355014922278 -4.967760929011808 0 0 0
404 1 6.715862641995756 3.723208786023651 -3.1602609286816197 0 0 0
405 1 6.270616803361321 5.483497431273445 -1.352760932627506 0 0 0
406 1 5.82117212072788 7.238627240687375 0.45473904623395073 0 0 0
407 1 5.388984749427081 8.9854634074844 2.2622390542718427 0 0 0
408 1 4.967176204210077 10.735599700498607 4.069739050333722 0 0 0
409 1 4.532638473134341 12.48818383850946 5.87723904353495 0 0 0
410 1 8.90367184105159 2.409712024026124 -6.775260878866759 0 0 0
411 1 8.462893626234873 4.165248071475542 -4.967760890619405 0 0 0
412 1 8.020453860601009 5.920830340779052 -3.160260911220904 0 0 0
413 1 7.582969785356454 7.672565724235664 -1.3527609094182442 0 0 0
414 1 7.150395997538922 9.422056825942608 0.4547390706847079 0 0 0
415 1 6.715862644538504 11.175730111028916 2.2622390721310692 0 0 0
416 1 6.270616806090629 12.936018752212473 4.06973906756898 0 0 0
417 1 5.821172123928321 14.691148565620086 5.877239048064129 0 0 0
418 1 10.214581348140953 4.60402032196053 -6.775260841156112 0 0 0
419 1 9.776098548543672 6.357104820111591 -4.967760857696939 0 0 0
420 1 9.340233422141651 8.109188585968592 -3.160260870112158 0 0 0
421 1 8.90367184692272 9.86223334870721 -1.3527608793725547 0 0 0
422 1 8.462893632815607 11.617769397270376 0.45473911006377565 0 0 0
423 1 8.0204538680551 13.373351664098113 2.2622390888908965 0 0 0
424 1 7.58296979019633 15.125087051481653 4.069739090944432 0 0 0
425 1 7.1503960007063085 16.87457815061261 5.877239071090581 0 0 0
426 1 11.53123503097936 6.7946260992628105 -6.7752607798087325 0 0 0
427 1 11.093850401123007 8.547873781671154 -4.967760802964072 0 0 0
428 1 10.654804938735026 10.3021497480926 -3.1602608173903324 0 0 0
429 1 10.214581349955694 12.05654164634515 -1.352760840706471 0 0 0
430 1 9.776098550113161 13.809626143749913 0.45473914273427907 0 0 0
431 1 9.340233423294478 15.561709911400083 2.2622391307457224 0 0 0
432 1 8.903671846664338 17.314754673626563 4.069739121206815 0 0 0
433 1 8.462893630335202 19.070290723975386 5.8772391109017965 0 0 0
434 1 12.846432981792205 8.986823198789633 -6.775260726665669 0 0 0
435 1 12.407324942782267 10.740780569440187 -4.967760763234344 0 0 0
436 1 11.968701495658308 12.494243293618158 -3.1602607754435663 0 0 0
437 1 11.531235033279614 14.247147423997117 -1.352760779468797 0 0 0
438 1 11.09385040166947 16.000395108153175 0.4547391976631747 0 0 0