#LAMMPS data file
14624 atoms
2 atom types
-125.2250000000 125.2250000000 xlo xhi
-29.8100853000 29.8100853000 ylo yhi
-7.2300000000 7.2300000000 zlo zhi
0.0 0.0 0.0 xy xz yz

Atoms # atomic

1 1 0.674239 28.212258 -6.779723
2 1 0.302137 22.564361 -6.779723
3 1 1.329890 24.718759 -6.779723
4 1 0.967170 26.351653 -4.972223
5 1 0.674239 28.212258 -3.164723
6 1 2.760044 26.805782 -6.779723
7 1 2.364035 28.568379 -4.972223
8 1 4.062318 29.007433 -6.779723
9 2 0.815268 18.696747 -6.779723
10 2 0.649811 20.734751 -4.972223
11 1 0.302137 22.564361 -3.164723
12 1 2.288323 20.997104 -6.779723
13 1 1.878583 22.941856 -4.972223
14 1 1.329890 24.718759 -3.164723
15 1 0.967170 26.351653 -1.357223
16 1 0.674239 28.212258 0.450277
17 1 3.554768 23.260668 -6.779723
18 1 3.164368 25.062383 -4.972223
19 1 2.760044 26.805782 -3.164723
20 1 2.364035 28.568379 -1.357223
21 1 4.913450 25.431895 -6.779723
22 1 4.508691 27.217730 -4.972223
23 1 4.062318 29.007433 -3.164723
24 1 6.233904 27.627384 -6.779723
25 1 5.802483 29.409636 -4.972223
26 2 0.846041 13.012892 -6.779723
27 2 -0.350135 15.136785 -3.164723
28 1 1.979372 15.275692 -6.779723
29 2 0.794610 16.802381 -4.972223
30 2 0.815268 18.696747 -3.164723
31 2 0.649811 20.734751 -1.357223
32 1 0.302137 22.564361 0.450277
33 1 3.017245 17.479554 -6.779723
34 1 2.583202 19.157728 -4.972223
35 1 2.288323 20.997104 -3.164723
36 1 1.878583 22.941856 -1.357223
37 1 1.329890 24.718759 0.450277
38 1 0.967170 26.351653 2.257777
39 1 0.674239 28.212258 4.065277
40 1 4.396132 19.651700 -6.779723
41 1 3.964711 21.432835 -4.972223
42 1 3.554768 23.260668 -3.164723
43 1 3.164368 25.062383 -1.357223
44 1 2.760044 26.805782 0.450277
45 1 2.364035 28.568379 2.257777
46 1 5.714590 21.872312 -6.779723
47 1 5.302568 23.644951 -4.972223
48 1 4.913450 25.431895 -3.164723
49 1 4.508691 27.217730 -1.357223
50 1 4.062318 29.007433 0.450277
51 1 7.064690 24.065172 -6.779723
52 1 6.654138 25.839147 -4.972223
53 1 6.233904 27.627384 -3.164723
54 1 5.802483 29.409636 -1.357223
55 1 8.399476 26.263836 -6.779723
56 1 7.975997 28.037438 -4.972223
57 1 9.731567 28.454567 -6.779723
58 2 -0.319822 7.697766 -4.972223
59 2 0.812664 9.326399 -6.779723
60 2 0.862370 11.183276 -4.972223
61 2 0.846041 13.012892 -3.164723
62 2 -0.350135 15.136785 0.450277
63 1 2.740388 11.579474 -6.779723
64 1 2.363439 13.481031 -4.972223
65 1 1.979372 15.275692 -3.164723
66 2 0.794610 16.802381 -1.357223
67 2 0.815268 18.696747 0.450277
68 2 0.649811 20.734751 2.257777
69 1 0.302137 22.564361 4.065277
70 1 4.054081 13.885480 -6.779723
71 1 3.568392 15.746989 -4.972223
72 1 3.017245 17.479554 -3.164723
73 1 2.583202 19.157728 -1.357223
74 1 2.288323 20.997104 0.450277
75 1 1.878583 22.941856 2.257777
76 1 1.329890 24.718759 4.065277
77 1 0.967170 26.351653 5.872777
78 1 5.276824 16.157334 -6.779723
79 1 4.830043 17.922842 -4.972223
80 1 4.396132 19.651700 -3.164723
81 1 3.964711 21.432835 -1.357223
82 1 3.554768 23.260668 0.450277
83 1 3.164368 25.062383 2.257777
84 1 2.760044 26.805782 4.065277
85 1 2.364035 28.568379 5.872777
86 1 6.596826 18.352539 -6.779723
87 1 6.156385 20.112591 -4.972223
88 1 5.714590 21.872312 -3.164723
89 1 5.302568 23.644951 -1.357223
90 1 4.913450 25.431895 0.450277
91 1 4.508691 27.217730 2.257777
92 1 4.062318 29.007433 4.065277
93 1 7.915441 20.550630 -6.779723
94 1 7.483489 22.306364 -4.972223
95 1 7.064690 24.065172 -3.164723
96 1 6.654138 25.839147 -1.357223
97 1 6.233904 27.627384 0.450277
98 1 5.802483 29.409636 2.257777
99 1 9.249621 22.739796 -6.779723
100 1 8.824177 24.497422 -4.972223
101 1 8.399476 26.263836 -3.164723
102 1 7.975997 28.037438 -1.357223
103 1 10.582274 24.931770 -6.779723
104 1 10.154306 26.691777 -4.972223
105 1 9.731567 28.454567 -3.164723
106 1 11.914869 27.121245 -6.779723
107 1 11.491848 28.878388 -4.972223
108 1 13.253097 29.306839 -6.779723
109 2 0.880303 3.727005 -6.779723
110 2 0.867505 5.555069 -4.972223
111 2 -0.319822 7.697766 -1.357223
112 1 2.396234 5.997152 -6.779723
113 1 2.013964 7.788540 -4.972223
114 2 0.812664 9.326399 -3.164723
115 2 0.862370 11.183276 -1.357223
116 2 0.846041 13.012892 0.450277
117 2 -0.350135 15.136785 4.065277
118 1 3.622925 8.244005 -6.779723
119 1 3.096277 9.952459 -4.972223
120 1 2.740388 11.579474 -3.164723
121 1 2.363439 13.481031 -1.357223
122 1 1.979372 15.275692 0.450277
123 2 0.794610 16.802381 2.257777
124 2 0.815268 18.696747 4.065277
125 2 0.649811 20.734751 5.872777
126 1 4.939030 10.393509 -6.779723
127 1 4.485747 12.126872 -4.972223
128 1 4.054081 13.885480 -3.164723
129 1 3.568392 15.746989 -1.357223
130 1 3.017245 17.479554 0.450277
131 1 2.583202 19.157728 2.257777
132 1 2.288323 20.997104 4.065277
133 1 1.878583 22.941856 5.872777
134 1 6.230421 12.606580 -6.779723
135 1 5.748725 14.380865 -4.972223
136 1 5.276824 16.157334 -3.164723
137 1 4.830043 17.922842 -1.357223
138 1 4.396132 19.651700 0.450277
139 1 3.964711 21.432835 2.257777
140 1 3.554768 23.260668 4.065277
141 1 3.164368 25.062383 5.872777
142 1 7.488740 14.836932 -6.779723
143 1 7.033481 16.595710 -4.972223
144 1 6.596826 18.352539 -3.164723
145 1 6.156385 20.112591 -1.357223
146 1 5.714590 21.872312 0.450277
147 1 5.302568 23.644951 2.257777
148 1 4.913450 25.431895 4.065277
149 1 4.508691 27.217730 5.872777
150 1 8.795882 17.037268 -6.779723
151 1 8.354445 18.793075 -4.972223
152 1 7.915441 20.550630 -3.164723
153 1 7.483489 22.306364 -1.357223
154 1 7.064690 24.065172 0.450277
155 1 6.654138 25.839147 2.257777
156 1 6.233904 27.627384 4.065277
157 1 5.802483 29.409636 5.872777
158 1 10.115053 19.232530 -6.779723
159 1 9.679181 20.985935 -4.972223
160 1 9.249621 22.739796 -3.164723
161 1 8.824177 24.497422 -1.357223
162 1 8.399476 26.263836 0.450277
163 1 7.975997 28.037438 2.257777
164 1 11.443373 21.422351 -6.779723
165 1 11.012094 23.175423 -4.972223
166 1 10.582274 24.931770 -3.164723
167 1 10.154306 26.691777 -1.357223
168 1 9.731567 28.454567 0.450277
169 1 12.773581 23.611940 -6.779723
170 1 12.342593 25.365821 -4.972223
171 1 11.914869 27.121245 -3.164723
172 1 11.491848 28.878388 -1.357223
173 1 14.104999 25.800034 -6.779723
174 1 13.677399 27.552651 -4.972223
175 1 13.253097 29.306839 -3.164723
176 1 15.440195 27.985915 -6.779723
177 2 0.883016 -1.898453 -6.779723
178 2 -0.302393 0.247607 -3.164723
179 1 2.031974 0.331444 -6.779723
180 2 0.831151 1.872153 -4.972223
181 2 0.880303 3.727005 -3.164723
182 2 0.867505 5.555069 -1.357223
183 2 -0.319822 7.697766 2.257777
184 1 3.118284 2.490715 -6.779723
185 1 2.761548 4.111781 -4.972223
186 1 2.396234 5.997152 -3.164723
187 1 2.013964 7.788540 -1.357223
188 2 0.812664 9.326399 0.450277
189 2 0.862370 11.183276 2.257777
190 2 0.846041 13.012892 4.065277
191 2 -0.350135 15.136785 -6.779723
192 1 4.520830 4.651226 -6.779723
193 1 4.094730 6.400328 -4.972223
194 1 3.622925 8.244005 -3.164723
195 1 3.096277 9.952459 -1.357223
196 1 2.740388 11.579474 0.450277
197 1 2.363439 13.481031 2.257777
198 1 1.979372 15.275692 4.065277
199 2 0.794610 16.802381 5.872777
200 1 5.804836 6.889420 -6.779723
201 1 5.350882 8.648564 -4.972223
202 1 4.939030 10.393509 -3.164723
203 1 4.485747 12.126872 -1.357223
204 1 4.054081 13.885480 0.450277
205 1 3.568392 15.746989 2.257777
206 1 3.017245 17.479554 4.065277
207 1 2.583202 19.157728 5.872777
208 1 7.117636 9.091512 -6.779723
209 1 6.681821 10.846971 -4.972223
210 1 6.230421 12.606580 -3.164723
211 1 5.748725 14.380865 -1.357223
212 1 5.276824 16.157334 0.450277
213 1 4.830043 17.922842 2.257777
214 1 4.396132 19.651700 4.065277
215 1 3.964711 21.432835 5.872777
216 1 8.419542 11.306271 -6.779723
217 1 7.957066 13.072990 -4.972223
218 1 7.488740 14.836932 -3.164723
219 1 7.033481 16.595710 -1.357223
220 1 6.596826 18.352539 0.450277
221 1 6.156385 20.112591 2.257777
222 1 5.714590 21.872312 4.065277
223 1 5.302568 23.644951 5.872777
224 1 9.698339 13.525150 -6.779723
225 1 9.242813 15.283101 -4.972223
226 1 8.795882 17.037268 -3.164723
227 1 8.354445 18.793075 -1.357223
228 1 7.915441 20.550630 0.450277
229 1 7.483489 22.306364 2.257777
230 1 7.064690 24.065172 4.065277
231 1 6.654138 25.839147 5.872777
232 1 11.000720 15.726168 -6.779723
233 1 10.556106 17.479316 -4.972223
234 1 10.115053 19.232530 -3.164723
235 1 9.679181 20.985935 -1.357223
236 1 9.249621 22.739796 0.450277
237 1 8.824177 24.497422 2.257777
238 1 8.399476 26.263836 4.065277
239 1 7.975997 28.037438 5.872777
240 1 12.317094 17.919850 -6.779723
241 1 11.878078 19.670985 -4.972223
242 1 11.443373 21.422351 -3.164723
243 1 11.012094 23.175423 -1.357223
244 1 10.582274 24.931770 0.450277
245 1 10.154306 26.691777 2.257777
246 1 9.731567 28.454567 4.065277
247 1 13.641427 20.109398 -6.779723
248 1 13.206486 21.859898 -4.972223
249 1 12.773581 23.611940 -3.164723
250 1 12.342593 25.365821 -1.357223
251 1 11.914869 27.121245 0.450277
252 1 11.491848 28.878388 2.257777
253 1 14.969127 22.297750 -6.779723
254 1 14.535822 24.048426 -4.972223
255 1 14.104999 25.800034 -3.164723
256 1 13.677399 27.552651 -1.357223
257 1 13.253097 29.306839 0.450277
258 1 16.298858 24.484927 -6.779723
259 1 15.868221 26.234967 -4.972223
260 1 15.440195 27.985915 -3.164723
261 1 17.631395 26.670773 -6.779723
262 1 17.202741 28.420677 -4.972223
263 1 18.964749 28.856697 -6.779723
264 2 -0.289484 -7.215086 -4.972223
265 2 0.831609 -5.581534 -6.779723
266 2 0.897969 -3.726982 -4.972223
267 2 0.883016 -1.898453 -3.164723
268 2 -0.302393 0.247607 0.450277
269 1 2.781622 -3.335938 -6.779723
270 1 2.414349 -1.457870 -4.972223
271 1 2.031974 0.331444 -3.164723
272 2 0.831151 1.872153 -1.357223
273 2 0.880303 3.727005 0.450277
274 2 0.867505 5.555069 2.257777
275 2 -0.319822 7.697766 5.872777
276 1 4.116802 -1.051175 -6.779723
277 1 3.644526 0.785522 -4.972223
278 1 3.118284 2.490715 -3.164723
279 1 2.761548 4.111781 -1.357223
280 1 2.396234 5.997152 0.450277
281 1 2.013964 7.788540 2.257777
282 2 0.812664 9.326399 4.065277
283 2 0.862370 11.183276 5.872777
284 1 5.378004 1.191246 -6.779723
285 1 4.967372 2.928429 -4.972223
286 1 4.520830 4.651226 -3.164723
287 1 4.094730 6.400328 -1.357223
288 1 3.622925 8.244005 0.450277
289 1 3.096277 9.952459 2.257777
290 1 2.740388 11.579474 4.065277
291 1 2.363439 13.481031 5.872777
292 1 6.720404 3.379675 -6.779723
293 1 6.275602 5.128891 -4.972223
294 1 5.804836 6.889420 -3.164723
295 1 5.350882 8.648564 -1.357223
296 1 4.939030 10.393509 0.450277
297 1 4.485747 12.126872 2.257777
298 1 4.054081 13.885480 4.065277
299 1 3.568392 15.746989 5.872777
300 1 8.013305 5.593915 -6.779723
301 1 7.557153 7.345097 -4.972223
302 1 7.117636 9.091512 -3.164723
303 1 6.681821 10.846971 -1.357223
304 1 6.230421 12.606580 0.450277
305 1 5.748725 14.380865 2.257777
306 1 5.276824 16.157334 4.065277
307 1 4.830043 17.922842 5.872777
308 1 9.314790 7.797601 -6.779723
309 1 8.869545 9.548409 -4.972223
310 1 8.419542 11.306271 -3.164723
311 1 7.957066 13.072990 -1.357223
312 1 7.488740 14.836932 0.450277
313 1 7.033481 16.595710 2.257777
314 1 6.596826 18.352539 4.065277
315 1 6.156385 20.112591 5.872777
316 1 10.614871 10.005943 -6.779723
317 1 10.157968 11.764642 -4.972223
318 1 9.698339 13.525150 -3.164723
319 1 9.242813 15.283101 -1.357223
320 1 8.795882 17.037268 0.450277
321 1 8.354445 18.793075 2.257777
322 1 7.915441 20.550630 4.065277
323 1 7.483489 22.306364 5.872777
324 1 11.903973 12.216597 -6.779723
325 1 11.449852 13.972192 -4.972223
326 1 11.000720 15.726168 -3.164723
327 1 10.556106 17.479316 -1.357223
328 1 10.115053 19.232530 0.450277
329 1 9.679181 20.985935 2.257777
330 1 9.249621 22.739796 4.065277
331 1 8.824177 24.497422 5.872777
332 1 13.206069 14.416659 -6.779723
333 1 12.759849 16.168446 -4.972223
334 1 12.317094 17.919850 -3.164723
335 1 11.878078 19.670985 -1.357223
336 1 11.443373 21.422351 0.450277
337 1 11.012094 23.175423 2.257777
338 1 10.582274 24.931770 4.065277
339 1 10.154306 26.691777 5.872777
340 1 14.520249 16.609710 -6.779723
341 1 14.079220 18.359566 -4.972223
342 1 13.641427 20.109398 -3.164723
343 1 13.206486 21.859898 -1.357223
344 1 12.773581 23.611940 0.450277
345 1 12.342593 25.365821 2.257777
346 1 11.914869 27.121245 4.065277
347 1 11.491848 28.878388 5.872777
348 1 15.841733 18.798966 -6.779723
349 1 15.404388 20.548020 -4.972223
350 1 14.969127 22.297750 -3.164723
351 1 14.535822 24.048426 -1.357223
352 1 14.104999 25.800034 0.450277
353 1 13.677399 27.552651 2.257777
354 1 13.253097 29.306839 4.065277
355 1 17.167121 20.986599 -6.779723
356 1 16.731947 22.735501 -4.972223
357 1 16.298858 24.484927 -3.164723
358 1 15.868221 26.234967 -1.357223
359 1 15.440195 27.985915 0.450277
360 1 18.494971 23.173156 -6.779723
361 1 18.062124 24.921697 -4.972223
362 1 17.631395 26.670773 -3.164723
363 1 17.202741 28.420677 -1.357223
364 1 19.825126 25.358867 -6.779723
365 1 19.394104 27.107401 -4.972223
366 1 18.964749 28.856697 -3.164723
367 1 21.156085 27.544783 -6.779723
368 1 20.725898 29.293851 -4.972223
369 2 0.927678 -11.184350 -6.779723
370 2 0.900119 -9.352131 -4.972223
371 2 -0.289484 -7.215086 -1.357223
372 1 2.431754 -8.889535 -6.779723
373 1 2.044663 -7.106673 -4.972223
374 2 0.831609 -5.581534 -3.164723
375 2 0.897969 -3.726982 -1.357223
376 2 0.883016 -1.898453 0.450277
377 2 -0.302393 0.247607 4.065277
378 1 3.665162 -6.647751 -6.779723
379 1 3.141983 -4.951445 -4.972223
380 1 2.781622 -3.335938 -3.164723
381 1 2.414349 -1.457870 -1.357223
382 1 2.031974 0.331444 0.450277
383 2 0.831151 1.872153 2.257777
384 2 0.880303 3.727005 4.065277
385 2 0.867505 5.555069 5.872777
386 1 4.994541 -4.507610 -6.779723
387 1 4.545605 -2.793206 -4.972223
388 1 4.116802 -1.051175 -3.164723
389 1 3.644526 0.785522 -1.357223
390 1 3.118284 2.490715 0.450277
391 1 2.761548 4.111781 2.257777
392 1 2.396234 5.997152 4.065277
393 1 2.013964 7.788540 5.872777
394 1 6.305260 -2.311725 -6.779723
395 1 5.832604 -0.560077 -4.972223
396 1 5.378004 1.191246 -3.164723
397 1 4.967372 2.928429 -1.357223
398 1 4.520830 4.651226 0.450277
399 1 4.094730 6.400328 2.257777
400 1 3.622925 8.244005 4.065277
401 1 3.096277 9.952459 5.872777
402 1 7.591449 -0.102480 -6.779723
403 1 7.152529 1.634542 -4.972223
404 1 6.720404 3.379675 -3.164723
405 1 6.275602 5.128891 -1.357223
406 1 5.804836 6.889420 0.450277
407 1 5.350882 8.648564 2.257777
408 1 4.939030 10.393509 4.065277
409 1 4.485747 12.126872 5.872777
410 1 8.913076 2.091459 -6.779723
411 1 8.467725 3.838801 -4.972223
412 1 8.013305 5.593915 -3.164723
413 1 7.557153 7.345097 -1.357223
414 1 7.117636 9.091512 0.450277
415 1 6.681821 10.846971 2.257777
416 1 6.230421 12.606580 4.065277
417 1 5.748725 14.380865 5.872777
418 1 10.214381 4.297931 -6.779723
419 1 9.762181 6.048357 -4.972223
420 1 9.314790 7.797601 -3.164723
421 1 8.869545 9.548409 -1.357223
422 1 8.419542 11.306271 0.450277
423 1 7.957066 13.072990 2.257777
424 1 7.488740 14.836932 4.065277
425 1 7.033481 16.595710 5.872777
426 1 11.514895 6.501360 -6.779723
427 1 11.066132 8.251884 -4.972223
428 1 10.614871 10.005943 -3.164723
429 1 10.157968 11.764642 -1.357223
430 1 9.698339 13.525150 0.450277
431 1 9.242813 15.283101 2.257777
432 1 8.795882 17.037268 4.065277
433 1 8.354445 18.793075 5.872777
434 1 12.814350 8.705870 -6.779723
435 1 12.360018 10.460489 -4.972223
436 1 11.903973 12.216597 -3.164723
437 1 11.449852 13.972192 -1.357223
438 1 11.000720 15.726168 0.450277
439 1 10.556106 17.479316 2.257777
440 1 10.115053 19.232530 4.065277
441 1 9.679181 20.985935 5.872777
442 1 14.108935 10.910758 -6.779723
443 1 13.656007 12.664131 -4.972223
444 1 13.206069 14.416659 -3.164723
445 1 12.759849 16.168446 -1.357223
446 1 12.317094 17.919850 0.450277
447 1 11.878078 19.670985 2.257777
448 1 11.443373 21.422351 4.065277
449 1 11.012094 23.175423 5.872777
450 1 15.411593 13.108851 -6.779723
451 1 14.964415 14.859542 -4.972223
452 1 14.520249 16.609710 -3.164723
453 1 14.079220 18.359566 -1.357223
454 1 13.641427 20.109398 0.450277
455 1 13.206486 21.859898 2.257777
456 1 12.773581 23.611940 4.065277
457 1 12.342593 25.365821 5.872777
458 1 16.724048 15.301087 -6.779723
459 1 16.281559 17.050125 -4.972223
460 1 15.841733 18.798966 -3.164723
461 1 15.404388 20.548020 -1.357223
462 1 14.969127 22.297750 0.450277
463 1 14.535822 24.048426 2.257777
464 1 14.104999 25.800034 4.065277
465 1 13.677399 27.552651 5.872777
466 1 18.043227 17.489886 -6.779723
467 1 17.604184 19.238138 -4.972223
468 1 17.167121 20.986599 -3.164723
469 1 16.731947 22.735501 -1.357223
470 1 16.298858 24.484927 0.450277
471 1 15.868221 26.234967 2.257777
472 1 15.440195 27.985915 4.065277
473 1 19.366488 19.676971 -6.779723
474 1 18.929818 21.424953 -4.972223
475 1 18.494971 23.173156 -3.164723
476 1 18.062124 24.921697 -1.357223
477 1 17.631395 26.670773 0.450277
478 1 17.202741 28.420677 2.257777
479 1 20.692419 21.863068 -6.779723
480 1 20.257895 23.610832 -4.972223
481 1 19.825126 25.358867 -3.164723
482 1 19.394104 27.107401 -1.357223
483 1 18.964749 28.856697 0.450277
484 1 22.020398 24.048615 -6.779723
485 1 21.587543 25.796459 -4.972223
486 1 21.156085 27.544783 -3.164723
487 1 20.725898 29.293851 -1.357223
488 1 23.349153 26.234460 -6.779723
489 1 22.917119 27.982852 -4.972223
490 1 24.677077 28.421512 -6.779723
491 2 0.918610 -16.758802 -6.779723
492 2 -0.289651 -14.683304 -3.164723
493 1 2.047891 -14.460304 -6.779723
494 2 0.772118 -13.030306 -4.972223
495 2 0.927678 -11.184350 -3.164723
496 2 0.900119 -9.352131 -1.357223
497 2 -0.289484 -7.215086 2.257777
498 1 3.205882 -12.339058 -6.779723
499 1 2.822531 -10.747070 -4.972223
500 1 2.431754 -8.889535 -3.164723
501 1 2.044663 -7.106673 -1.357223
502 2 0.831609 -5.581534 0.450277
503 2 0.897969 -3.726982 2.257777
504 2 0.883016 -1.898453 4.065277
505 2 -0.302393 0.247607 -6.779723
506 1 4.590942 -10.188410 -6.779723
507 1 4.144542 -8.466058 -4.972223
508 1 3.665162 -6.647751 -3.164723
509 1 3.141983 -4.951445 -1.357223
510 1 2.781622 -3.335938 0.450277
511 1 2.414349 -1.457870 2.257777
512 1 2.031974 0.331444 4.065277
513 2 0.831151 1.872153 5.872777
514 1 5.870386 -7.968253 -6.779723
515 1 5.409037 -6.232729 -4.972223
516 1 4.994541 -4.507610 -3.164723
517 1 4.545605 -2.793206 -1.357223
518 1 4.116802 -1.051175 0.450277
519 1 3.644526 0.785522 2.257777
520 1 3.118284 2.490715 4.065277
521 1 2.761548 4.111781 5.872777
522 1 7.190694 -5.784738 -6.779723
523 1 6.753423 -4.051179 -4.972223
524 1 6.305260 -2.311725 -3.164723
525 1 5.832604 -0.560077 -1.357223
526 1 5.378004 1.191246 0.450277
527 1 4.967372 2.928429 2.257777
528 1 4.520830 4.651226 4.065277
529 1 4.094730 6.400328 5.872777
530 1 8.506193 -3.589895 -6.779723
531 1 8.048905 -1.844369 -4.972223
532 1 7.591449 -0.102480 -3.164723
533 1 7.152529 1.634542 -1.357223
534 1 6.720404 3.379675 0.450277
535 1 6.275602 5.128891 2.257777
536 1 5.804836 6.889420 4.065277
537 1 5.350882 8.648564 5.872777
538 1 9.803572 -1.389658 -6.779723
539 1 9.356187 0.350549 -4.972223
540 1 8.913076 2.091459 -3.164723
541 1 8.467725 3.838801 -1.357223
542 1 8.013305 5.593915 0.450277
543 1 7.557153 7.345097 2.257777
544 1 7.117636 9.091512 4.065277
545 1 6.681821 10.846971 5.872777
546 1 11.114059 0.804053 -6.779723
547 1 10.666002 2.549095 -4.972223
548 1 10.214381 4.297931 -3.164723
549 1 9.762181 6.048357 -1.357223
550 1 9.314790 7.797601 0.450277
551 1 8.869545 9.548409 2.257777
552 1 8.419542 11.306271 4.065277
553 1 7.957066 13.072990 5.872777
554 1 12.416496 3.003889 -6.779723
555 1 11.964933 4.752398 -4.972223
556 1 11.514895 6.501360 -3.164723
557 1 11.066132 8.251884 -1.357223
558 1 10.614871 10.005943 0.450277
559 1 10.157968 11.764642 2.257777
560 1 9.698339 13.525150 4.065277
561 1 9.242813 15.283101 5.872777
562 1 13.716540 5.204084 -6.779723
563 1 13.266013 6.953946 -4.972223
564 1 12.814350 8.705870 -3.164723
565 1 12.360018 10.460489 -1.357223
566 1 11.903973 12.216597 0.450277
567 1 11.449852 13.972192 2.257777
568 1 11.000720 15.726168 4.065277
569 1 10.556106 17.479316 5.872777
570 1 15.015732 7.404904 -6.779723
571 1 14.562798 9.157344 -4.972223
572 1 14.108935 10.910758 -3.164723
573 1 13.656007 12.664131 -1.357223
574 1 13.206069 14.416659 0.450277
575 1 12.759849 16.168446 2.257777
576 1 12.317094 17.919850 4.065277
577 1 11.878078 19.670985 5.872777
578 1 16.313311 9.605413 -6.779723
579 1 15.861524 11.357444 -4.972223
580 1 15.411593 13.108851 -3.164723
581 1 14.964415 14.859542 -1.357223
582 1 14.520249 16.609710 0.450277
583 1 14.079220 18.359566 2.257777
584 1 13.641427 20.109398 4.065277
585 1 13.206486 21.859898 5.872777
586 1 17.616610 11.801366 -6.779723
587 1 17.169135 13.551574 -4.972223
588 1 16.724048 15.301087 -3.164723
589 1 16.281559 17.050125 -1.357223
590 1 15.841733 18.798966 0.450277
591 1 15.404388 20.548020 2.257777
592 1 14.969127 22.297750 4.065277
593 1 14.535822 24.048426 5.872777
594 1 18.927784 13.992683 -6.779723
595 1 18.484415 15.741509 -4.972223
596 1 18.043227 17.489886 -3.164723
597 1 17.604184 19.238138 -1.357223
598 1 17.167121 20.986599 0.450277
599 1 16.731947 22.735501 2.257777
600 1 16.298858 24.484927 4.065277
601 1 15.868221 26.234967 5.872777
602 1 20.245055 16.180989 -6.779723
603 1 19.804892 17.929062 -4.972223
604 1 19.366488 19.676971 -3.164723
605 1 18.929818 21.424953 -1.357223
606 1 18.494971 23.173156 0.450277
607 1 18.062124 24.921697 2.257777
608 1 17.631395 26.670773 4.065277
609 1 17.202741 28.420677 5.872777
610 1 21.566392 18.367654 -6.779723
611 1 21.128620 20.115396 -4.972223
612 1 20.692419 21.863068 -3.164723
613 1 20.257895 23.610832 -1.357223
614 1 19.825126 25.358867 0.450277
615 1 19.394104 27.107401 2.257777
616 1 18.964749 28.856697 4.065277
617 1 22.890476 20.553434 -6.779723
618 1 22.454712 22.301011 -4.972223
619 1 22.020398 24.048615 -3.164723
620 1 21.587543 25.796459 -1.357223
621 1 21.156085 27.544783 0.450277
622 1 20.725898 29.293851 2.257777
623 1 24.216472 22.738856 -6.779723
624 1 23.782237 24.486545 -4.972223
625 1 23.349153 26.234460 -3.164723
626 1 22.917119 27.982852 -1.357223
627 1 25.543237 24.924640 -6.779723
628 1 25.109799 26.672838 -4.972223
629 1 24.677077 28.421512 -3.164723
630 1 26.869400 27.111536 -6.779723
631 1 26.435936 28.860630 -4.972223
632 1 28.193762 29.300066 -6.779723
633 1 0.350335 -22.149685 -6.779723
634 1 1.414881 -20.016997 -6.779723
635 2 1.018621 -18.447912 -4.972223
636 2 0.918610 -16.758802 -3.164723
637 2 -0.289651 -14.683304 0.450277
638 1 2.954582 -18.003186 -6.779723
639 1 2.457709 -16.211968 -4.972223
640 1 2.047891 -14.460304 -3.164723
641 2 0.772118 -13.030306 -1.357223
642 2 0.927678 -11.184350 0.450277
643 2 0.900119 -9.352131 2.257777
644 2 -0.289484 -7.215086 5.872777
645 1 4.195690 -15.782873 -6.779723
646 1 3.705443 -14.008589 -4.972223
647 1 3.205882 -12.339058 -3.164723
648 1 2.822531 -10.747070 -1.357223
649 1 2.431754 -8.889535 0.450277
650 1 2.044663 -7.106673 2.257777
651 2 0.831609 -5.581534 4.065277
652 2 0.897969 -3.726982 5.872777
653 1 5.472819 -13.600408 -6.779723
654 1 5.052826 -11.889665 -4.972223
655 1 4.590942 -10.188410 -3.164723
656 1 4.144542 -8.466058 -1.357223
657 1 3.665162 -6.647751 0.450277
658 1 3.141983 -4.951445 2.257777
659 1 2.781622 -3.335938 4.065277
660 1 2.414349 -1.457870 5.872777
661 1 6.808729 -11.438499 -6.779723
662 1 6.351993 -9.706104 -4.972223
663 1 5.870386 -7.968253 -3.164723
664 1 5.409037 -6.232729 -1.357223
665 1 4.994541 -4.507610 0.450277
666 1 4.545605 -2.793206 2.257777
667 1 4.116802 -1.051175 4.065277
668 1 3.644526 0.785522 5.872777
669 1 8.096369 -9.246105 -6.779723
670 1 7.634788 -7.511012 -4.972223
671 1 7.190694 -5.784738 -3.164723
672 1 6.753423 -4.051179 -1.357223
673 1 6.305260 -2.311725 0.450277
674 1 5.832604 -0.560077 2.257777
675 1 5.378004 1.191246 4.065277
676 1 4.967372 2.928429 5.872777
677 1 9.400991 -7.063828 -6.779723
678 1 8.955175 -5.328658 -4.972223
679 1 8.506193 -3.589895 -3.164723
680 1 8.048905 -1.844369 -1.357223
681 1 7.591449 -0.102480 0.450277
682 1 7.152529 1.634542 2.257777
683 1 6.720404 3.379675 4.065277
684 1 6.275602 5.128891 5.872777
685 1 10.709781 -4.875913 -6.779723
686 1 10.256974 -3.132380 -4.972223
687 1 9.803572 -1.389658 -3.164723
688 1 9.356187 0.350549 -1.357223
689 1 8.913076 2.091459 0.450277
690 1 8.467725 3.838801 2.257777
691 1 8.013305 5.593915 4.065277
692 1 7.557153 7.345097 5.872777
693 1 12.010195 -2.682332 -6.779723
694 1 11.561133 -0.938827 -4.972223
695 1 11.114059 0.804053 -3.164723
696 1 10.666002 2.549095 -1.357223
697 1 10.214381 4.297931 0.450277
698 1 9.762181 6.048357 2.257777
699 1 9.314790 7.797601 4.065277
700 1 8.869545 9.548409 5.872777
701 1 13.315605 -0.490014 -6.779723
702 1 12.867048 1.256353 -4.972223
703 1 12.416496 3.003889 -3.164723
704 1 11.964933 4.752398 -1.357223
705 1 11.514895 6.501360 0.450277
706 1 11.066132 8.251884 2.257777
707 1 10.614871 10.005943 4.065277
708 1 10.157968 11.764642 5.872777
709 1 14.617726 1.705906 -6.779723
710 1 14.167230 3.454987 -4.972223
711 1 13.716540 5.204084 -3.164723
712 1 13.266013 6.953946 -1.357223
713 1 12.814350 8.705870 0.450277
714 1 12.360018 10.460489 2.257777
715 1 11.903973 12.216597 4.065277
716 1 11.449852 13.972192 5.872777
717 1 15.917709 3.903204 -6.779723
718 1 15.467214 5.653724 -4.972223
719 1 15.015732 7.404904 -3.164723
720 1 14.562798 9.157344 -1.357223
721 1 14.108935 10.910758 0.450277
722 1 13.656007 12.664131 2.257777
723 1 13.206069 14.416659 4.065277
724 1 12.759849 16.168446 5.872777
725 1 17.217076 6.101095 -6.779723
726 1 16.765549 7.853178 -4.972223
727 1 16.313311 9.605413 -3.164723
728 1 15.861524 11.357444 -1.357223
729 1 15.411593 13.108851 0.450277
730 1 14.964415 14.859542 2.257777
731 1 14.520249 16.609710 4.065277
732 1 14.079220 18.359566 5.872777
733 1 18.516465 8.298459 -6.779723
734 1 18.066005 10.050318 -4.972223
735 1 17.616610 11.801366 -3.164723
736 1 17.169135 13.551574 -1.357223
737 1 16.724048 15.301087 0.450277
738 1 16.281559 17.050125 2.257777
739 1 15.841733 18.798966 4.065277
740 1 15.404388 20.548020 5.872777
741 1 19.820348 10.492623 -6.779723
742 1 19.373198 12.243129 -4.972223
743 1 18.927784 13.992683 -3.164723
744 1 18.484415 15.741509 -1.357223
745 1 18.043227 17.489886 0.450277
746 1 17.604184 19.238138 2.257777
747 1 17.167121 20.986599 4.065277
748 1 16.731947 22.735501 5.872777
749 1 21.130645 12.683174 -6.779723
750 1 20.686998 14.432458 -4.972223
751 1 20.245055 16.180989 -3.164723
752 1 19.804892 17.929062 -1.357223
753 1 19.366488 19.676971 0.450277
754 1 18.929818 21.424953 2.257777
755 1 18.494971 23.173156 4.065277
756 1 18.062124 24.921697 5.872777
757 1 22.446400 14.871141 -6.779723
758 1 22.005666 16.619650 -4.972223
759 1 21.566392 18.367654 -3.164723
760 1 21.128620 20.115396 -1.357223
761 1 20.692419 21.863068 0.450277
762 1 20.257895 23.610832 2.257777
763 1 19.825126 25.358867 4.065277
764 1 19.394104 27.107401 5.872777
765 1 23.766080 17.057597 -6.779723
766 1 23.327627 18.805693 -4.972223
767 1 22.890476 20.553434 -3.164723
768 1 22.454712 22.301011 -1.357223
769 1 22.020398 24.048615 0.450277
770 1 21.587543 25.796459 2.257777
771 1 21.156085 27.544783 4.065277
772 1 20.725898 29.293851 5.872777
773 1 25.088491 19.243262 -6.779723
774 1 24.651896 20.991166 -4.972223
775 1 24.216472 22.738856 -3.164723
776 1 23.782237 24.486545 -1.357223
777 1 23.349153 26.234460 0.450277
778 1 22.917119 27.982852 2.257777
779 1 26.412726 21.428686 -6.779723
780 1 25.977522 23.176668 -4.972223
781 1 25.543237 24.924640 -3.164723
782 1 25.109799 26.672838 -1.357223
783 1 24.677077 28.421512 0.450277
784 1 27.737737 23.614497 -6.779723
785 1 27.303287 25.362904 -4.972223
786 1 26.869400 27.111536 -3.164723
787 1 26.435936 28.860630 -1.357223
788 1 29.062345 25.801321 -6.779723
789 1 28.627958 27.550480 -4.972223
790 1 28.193762 29.300066 -3.164723
791 1 30.385533 27.989594 -6.779723
792 1 0.997551 -25.816302 -6.779723
793 1 0.709274 -23.957887 -4.972223
794 1 0.350335 -22.149685 -3.164723
795 1 2.403123 -23.605339 -6.779723
796 1 1.953910 -21.754782 -4.972223
797 1 1.414881 -20.016997 -3.164723
798 2 1.018621 -18.447912 -1.357223
799 2 0.918610 -16.758802 0.450277
800 2 -0.289651 -14.683304 4.065277
801 1 3.680442 -21.402054 -6.779723
802 1 3.288090 -19.673119 -4.972223
803 1 2.954582 -18.003186 -3.164723
804 1 2.457709 -16.211968 -1.357223
805 1 2.047891 -14.460304 0.450277
806 2 0.772118 -13.030306 2.257777
807 2 0.927678 -11.184350 4.065277
808 2 0.900119 -9.352131 5.872777
809 1 5.089556 -19.287471 -6.779723
810 1 4.655721 -17.526727 -4.972223
811 1 4.195690 -15.782873 -3.164723
812 1 3.705443 -14.008589 -1.357223
813 1 3.205882 -12.339058 0.450277
814 1 2.822531 -10.747070 2.257777
815 1 2.431754 -8.889535 4.065277
816 1 2.044663 -7.106673 5.872777
817 1 6.384512 -17.095574 -6.779723
818 1 5.923769 -15.334625 -4.972223
819 1 5.472819 -13.600408 -3.164723
820 1 5.052826 -11.889665 -1.357223
821 1 4.590942 -10.188410 0.450277
822 1 4.144542 -8.466058 2.257777
823 1 3.665162 -6.647751 4.065277
824 1 3.141983 -4.951445 5.872777
825 1 7.679140 -14.913781 -6.779723
826 1 7.247531 -13.174394 -4.972223
827 1 6.808729 -11.438499 -3.164723
828 1 6.351993 -9.706104 -1.357223
829 1 5.870386 -7.968253 0.450277
830 1 5.409037 -6.232729 2.257777
831 1 4.994541 -4.507610 4.065277
832 1 4.545605 -2.793206 5.872777
833 1 9.000310 -12.739808 -6.779723
834 1 8.555213 -10.992019 -4.972223
835 1 8.096369 -9.246105 -3.164723
836 1 7.634788 -7.511012 -1.357223
837 1 7.190694 -5.784738 0.450277
838 1 6.753423 -4.051179 2.257777
839 1 6.305260 -2.311725 4.065277
840 1 5.832604 -0.560077 5.872777
841 1 10.299144 -10.550690 -6.779723
842 1 9.848714 -8.803070 -4.972223
843 1 9.400991 -7.063828 -3.164723
844 1 8.955175 -5.328658 -1.357223
845 1 8.506193 -3.589895 0.450277
846 1 8.048905 -1.844369 2.257777
847 1 7.591449 -0.102480 4.065277
848 1 7.152529 1.634542 5.872777
849 1 11.602322 -8.364700 -6.779723
850 1 11.157726 -6.619274 -4.972223
851 1 10.709781 -4.875913 -3.164723
852 1 10.256974 -3.132380 -1.357223
853 1 9.803572 -1.389658 0.450277
854 1 9.356187 0.350549 2.257777
855 1 8.913076 2.091459 4.065277
856 1 8.467725 3.838801 5.872777
857 1 12.908482 -6.176744 -6.779723