LAMMPS data file via write_data, version 29 Aug 2024, timestep = 903, units = metal

14624 atoms
2 atom types

-100.1 100.1 xlo xhi
-29.8100853 29.8100853 ylo yhi
-7.23 7.23 zlo zhi
0 0 0 xy xz yz

Masses

1 63.55
2 63.55

Atoms # atomic

1 2 -0.2897222450267094 -29.52966452229059 -6.783200217298484 0 0 1
2 2 -0.28972224572719085 22.63798475282122 -4.97570021722236 0 0 0
3 2 0.877902577979242 26.07840161158227 -4.9757002188740165 0 0 0
4 2 0.8779025779618337 27.90548412835724 -3.1682002189226086 0 0 0
5 2 0.8779025779321472 27.905484128316278 0.4467997810835498 0 0 0
6 1 2.756542871241763 26.419622937970043 -6.783200220249205 0 0 0
7 1 2.4202271141275844 28.296061214127203 -4.975700219809555 0 0 0
8 1 4.116021268053544 28.682180936259012 -6.783200220709334 0 0 0
9 2 0.8779025768286317 20.452962803347692 -4.975700218997414 0 0 0
10 2 0.8779025788940658 -26.089247663356687 -6.783200218948897 0 0 1
11 2 -0.2897222459837536 22.637984752924535 -1.3607002172223086 0 0 0
12 1 2.42022711320287 20.843539888811645 -6.783200219681972 0 0 0
13 1 2.045527399829467 22.637984754217673 -4.975700220552581 0 0 0
14 2 0.8779025768523496 24.224760122025454 -3.1682002188228173 0 0 0
15 2 0.8779025779814447 26.0784016115834 -1.360700218866095 0 0 0
16 2 0.87790257796388 27.90548412835783 4.061799781077197 0 0 0
17 1 3.6494116768135854 23.07917815672047 -6.783200220795956 0 0 0
18 1 3.111031236808529 24.796950586922154 -4.975700220550002 0 0 0
19 1 2.7565428712387074 26.419622937971337 -3.1682002202721926 0 0 0
20 1 2.420227114124202 28.296061214130344 -1.360700219827635 0 0 0
21 1 4.964173030670096 25.21071514337014 -6.783200221203433 0 0 0
22 1 4.530615396756161 26.9312453412935 -4.975700220987606 0 0 0
23 1 4.116021268061246 28.682180936247686 -3.168200220704893 0 0 0
24 1 6.288443050457516 27.391244504910656 -6.783200221704105 0 0 0
25 1 5.824424794477309 29.155328831538778 -4.975700221438055 0 0 0
26 2 0.8779025773842761 -27.9428891528981 5.8692997810998575 0 0 0
27 2 -0.28972224673314884 15.185463427688912 -3.1682002172133377 0 0 0
28 1 2.0455273989073106 15.185463428852064 -6.783200220605659 0 0 0
29 2 0.8779025759196912 16.772238796876774 -4.975700218854635 0 0 0
30 2 0.8779025768923105 18.625880286549563 -3.168200218813045 0 0 0
31 2 0.8779025768999134 20.45296280324187 -1.360700218998479 0 0 0
32 2 -0.28972224572520133 22.63798475282022 2.2542997827774918 0 0 0
33 1 3.1110312356535843 17.34442926170041 -6.783200220560998 0 0 0
34 1 2.7565428701519608 18.96710161266343 -4.975700220313025 0 0 0
35 1 2.4202271132053994 20.843539888814345 -3.1682002196460806 0 0 0
36 1 2.045527400081639 22.637984754286958 -1.3607002205495144 0 0 0
37 2 0.8779025768514117 24.224760122025902 0.44679978118956604 0 0 0
38 2 0.8779025779798246 26.078401611582233 2.2542997811256043 0 0 0
39 2 0.8779025779315646 27.905484128318815 -6.783200218916931 0 0 1
40 1 4.530615395745045 19.478724015871354 -6.783200220982542 0 0 0
41 1 4.116021267158928 21.229659610818903 -4.975700220720357 0 0 0
42 1 3.649411676810189 23.079178156721238 -3.1682002207010127 0 0 0
43 1 3.1110312367987234 24.796950586832477 -1.360700220546571 0 0 0
44 1 2.7565428712411375 26.419622937970633 0.4467997797505028 0 0 0
45 1 2.4202271141279397 28.296061214127068 2.254299780191005 0 0 0
46 1 5.824424793549014 21.70280750608539 -6.783200221416479 0 0 0
47 1 5.37280775778585 23.466465702161276 -4.975700221324698 0 0 0
48 1 4.964173030669386 25.210715143370845 -3.1682002212090223 0 0 0
49 1 4.530615396766535 26.931245341307555 -1.3607002209923207 0 0 0
50 1 4.116021268052833 28.682180936259773 0.44679977929043224 0 0 0
51 1 7.144789360862632 23.888524089897896 -6.783200222000446 0 0 0
52 1 6.722980801598553 25.638660360981294 -4.975700221867592 0 0 0
53 1 6.2884430504563085 27.3912445049116 -3.1682002217015217 0 0 0
54 1 5.824424794476087 29.155328831537783 -1.3607002214389357 0 0 0
55 1 8.471667166691816 26.07879090607882 -6.783200222495674 0 0 0
56 1 8.026421342938022 27.839079508209277 -4.975700222349513 0 0 0
57 1 9.776258353461586 28.276412564026668 -6.783200222931853 0 0 0
58 2 -0.28972224659085555 7.732942102613318 -4.975700217269936 0 0 0
59 2 0.877902576477581 11.173358961290045 -4.975700218892302 0 0 0
60 2 0.8779025762311079 13.000441477987184 -3.168200218883679 0 0 0
61 2 0.8779025762780321 13.000441478061813 0.4467997811190801 0 0 0
62 2 -0.2897222465641818 15.185463427647438 0.446799782781123 0 0 0
63 1 2.7565428696960055 11.514580287646933 -6.783200220327406 0 0 0
64 1 2.420227112519754 13.391018563561222 -4.9757002198487115 0 0 0
65 1 2.045527399127664 15.185463428937968 -3.168200220598811 0 0 0
66 2 0.8779025759195633 16.772238796877136 -1.3607002188492925 0 0 0
67 2 0.8779025768906195 18.625880286546856 0.4467997811658192 0 0 0
68 2 0.877902576826699 20.452962803347386 2.25429978100325 0 0 0
69 2 -0.2897222459826878 22.637984752923725 5.869299782777666 0 0 0
70 1 4.116021266462965 13.777138285793736 -6.78320022074771 0 0 0
71 1 3.649411675883755 15.62665683154908 -4.9757002208052015 0 0 0
72 1 3.111031235638606 17.344429261609914 -3.168200220578582 0 0 0
73 1 2.7565428700960126 18.967101612706617 -1.360700220288021 0 0 0
74 1 2.420227113203424 20.843539888811673 0.4467997803175592 0 0 0
75 1 2.045527399827364 22.637984754217978 2.2542997794482367 0 0 0
76 2 0.8779025768506585 24.224760122025476 4.061799781176919 0 0 0
77 2 0.8779025779818852 26.0784016115832 5.869299781133615 0 0 0
78 1 5.3728077568737405 16.013944377059087 -6.783200221400079 0 0 0
79 1 4.964173029630587 17.758193818090408 -4.975700221276227 0 0 0
80 1 4.530615395756158 19.478724015885245 -3.1682002209976674 0 0 0
81 1 4.116021267114249 21.22965961085082 -1.360700220721109 0 0 0
82 1 3.6494116768135854 23.07917815672055 0.4467997792037657 0 0 0
83 1 3.1110312368093247 24.796950586922616 2.2542997794499176 0 0 0
84 1 2.7565428712385796 26.419622937971237 4.061799779727956 0 0 0
85 1 2.4202271141237617 28.29606121413006 5.869299780171367 0 0 0
86 1 6.722980800724287 18.186139035642267 -6.783200221938961 0 0 0
87 1 6.288443049521277 19.938723179464137 -4.975700221744973 0 0 0
88 1 5.82442479354566 21.70280750608222 -3.1682002214254585 0 0 0
89 1 5.372807757765074 23.466465702156693 -1.3607002213256807 0 0 0
90 1 4.964173030670452 25.210715143369935 0.44679977879646565 0 0 0
91 1 4.530615396756488 26.931245341293288 2.2542997790122854 0 0 0
92 1 4.116021268061502 28.682180936247587 4.061799779295234 0 0 0
93 1 8.026421342038574 20.38655818275156 -6.783200222398127 0 0 0
94 1 7.576976695468275 22.141687960921086 -4.975700222173653 0 0 0
95 1 7.144789360862589 23.888524089899928 -3.1682002220044083 0 0 0
96 1 6.7229808015984815 25.638660360984414 -1.3607002218673634 0 0 0
97 1 6.288443050457715 27.391244504910457 0.4467997782956473 0 0 0
98 1 5.824424794477622 29.155328831538707 2.2542997785619034 0 0 0
99 1 9.338774303888854 22.575626576586156 -6.783200222817816 0 0 0
100 1 8.906200526890132 24.325117657993072 -4.975700222649289 0 0 0
101 1 8.471667166692768 26.078790906078734 -3.168200222494547 0 0 0
102 1 8.026421342936047 27.839079508207664 -1.3607002223477482 0 0 0
103 1 10.659476306346491 24.765294308907063 -6.783200223153628 0 0 0
104 1 10.218698104646322 26.52083033686524 -4.97570022298931 0 0 0
105 1 9.77625835346052 28.276412564026085 -3.168200222931886 0 0 0
106 1 11.970385762498822 26.959602693334954 -6.783200223455111 0 0 0
107 1 11.531902986370454 28.712687176302172 -4.9757002234048535 0 0 0
108 1 13.28703939571173 29.150208563853393 -6.7832002237439415 0 0 0
109 2 0.8779025766788493 5.547920153071512 -4.975700218953228 0 0 0
110 2 0.8779025766648232 5.547920153078866 -1.3607002189511435 0 0 0
111 2 -0.28972224655618106 7.732942102594574 -1.3607002172670917 0 0 0
112 1 2.420227112853482 5.9384972386868675 -6.783200219775364 0 0 0
113 1 2.045527399063076 7.732942104016889 -4.975700220674196 0 0 0
114 2 0.8779025755092107 9.319717471744095 -3.168200218913548 0 0 0
115 2 0.8779025764759609 11.17335896129634 -1.3607002189067907 0 0 0
116 2 0.8779025762273136 13.000441477985152 4.061799781117759 0 0 0
117 2 -0.28972224673788105 15.18546342769007 4.061799782787766 0 0 0
118 1 3.6494116758928925 8.174135506741226 -6.783200220882679 0 0 0
119 1 3.111031235519576 9.891907936778164 -4.97570022064614 0 0 0
120 1 2.7565428696876637 11.51458028764836 -3.1682002203282864 0 0 0
121 1 2.4202271125224684 13.391018563557981 -1.360700219819726 0 0 0
122 1 2.045527398945808 15.185463428866523 0.4467997793946601 0 0 0
123 2 0.8779025759188954 16.772238796877442 2.2542997811459364 0 0 0
124 2 0.8779025768923105 18.6258802865491 4.061799781186171 0 0 0
125 2 0.8779025768512554 24.224760122026108 -6.783200218810979 0 0 1
126 1 4.964173029410674 10.305672493334466 -6.78320022133583 0 0 0
127 1 4.530615395318847 12.02620269102069 -4.975700221087385 0 0 0
128 1 4.116021266441734 13.777138285823899 -3.1682002207459323 0 0 0
129 1 3.6494116758846076 15.626656831547432 -1.3607002208869996 0 0 0
130 1 3.111031235650472 17.344429261686326 0.4467997794389542 0 0 0
131 1 2.75654287015152 18.96710161266488 2.2542997796882878 0 0 0
132 1 2.420227113206465 20.84353988881399 4.061799780353997 0 0 0
133 1 2.045527400080317 22.637984754286588 5.869299779449737 0 0 0
134 1 6.288443049009317 12.486201854734187 -6.783200221830134 0 0 0
135 1 5.824424792837561 14.25028618118743 -4.975700221530901 0 0 0
136 1 5.372807756854826 16.013944377055164 -3.168200221399984 0 0 0
137 1 4.964173029645693 17.75819381808257 -1.3607002212713433 0 0 0
138 1 4.530615395746736 19.478724015873386 0.44679977901744017 0 0 0
139 1 4.11602126715924 21.229659610818413 2.2542997792795236 0 0 0
140 1 3.6494116768108142 23.079178156721486 4.0617997792991964 0 0 0
141 1 3.1110312367992776 24.7969505868333 5.869299779453858 0 0 0
142 1 7.57697669484817 14.689166636054484 -6.783200222285936 0 0 0
143 1 7.144789360108021 16.436002764775292 -4.975700222118638 0 0 0
144 1 6.722980800726333 18.18613903564521 -3.168200221934209 0 0 0
145 1 6.288443049533242 19.938723179458204 -1.360700221748089 0 0 0
146 1 5.824424793548886 21.702807506085033 0.4467997785834555 0 0 0
147 1 5.372807757786234 23.46646570216124 2.2542997786753687 0 0 0
148 1 4.964173030669741 25.210715143371086 4.061799778791013 0 0 0
149 1 4.530615396766564 26.931245341307456 5.8692997790080765 0 0 0
150 1 8.906200526274162 16.87259633286457 -6.783200222772887 0 0 0
151 1 8.471667165907277 18.62626958074078 -4.97570022259232 0 0 0
152 1 8.026421342037267 20.386558182749877 -3.168200222394031 0 0 0
153 1 7.576976695471345 22.141687960918585 -1.3607002221738942 0 0 0
154 1 7.144789360862774 23.888524089897896 0.44679977799952975 0 0 0
155 1 6.722980801598467 25.638660360981373 2.2542997781323577 0 0 0
156 1 6.288443050456337 27.39124450491172 4.061799778298521 0 0 0
157 1 5.824424794476087 29.155328831537798 5.869299778561106 0 0 0
158 1 10.21869810395107 19.06830901157792 -6.783200223089822 0 0 0
159 1 9.776258352625845 20.823891238564617 -4.975700222995297 0 0 0
160 1 9.33877430388894 22.575626576587123 -3.1682002228172945 0 0 0
161 1 8.906200526891439 24.325117657993314 -1.3607002226495097 0 0 0
162 1 8.471667166691788 26.078790906078833 0.44679977750416006 0 0 0
163 1 8.026421342937937 27.839079508209277 2.254299777650388 0 0 0
164 1 11.531902985690365 21.260165850824198 -6.783200223474368 0 0 0
165 1 11.096037869806423 23.01224958311347 -4.975700223294742 0 0 0
166 1 10.659476306346548 24.76529430890653 -3.168200223152853 0 0 0
167 1 10.21869810464679 26.52083033686557 -1.3607002229893548 0 0 0
168 1 9.7762583534617 28.27641256402654 0.4467997770681141 0 0 0
169 1 12.849654790653432 23.45093489518813 -6.783200223679337 0 0 0
170 1 12.410609343107723 25.205210829015176 -4.975700223530696 0 0 0
171 1 11.970385762498466 26.959602693334855 -3.1682002234548876 0 0 0
172 1 11.531902986372117 28.71268717630323 -1.3607002234054257 0 0 0
173 1 14.163129289793147 25.64384176809995 -6.7832002238369205 0 0 0
174 1 13.72450584633836 27.397304467063844 -4.9757002238213 0 0 0
175 1 13.287039395713151 29.150208563853422 -3.1682002237447056 0 0 0
176 1 15.478658051756142 27.835272261666443 -6.783200224089054 0 0 0
177 2 -0.28972224493827525 -29.529664522309957 4.061799782703627 0 0 0
178 2 -0.28972224525745105 0.28042077801072907 -3.1682002172655594 0 0 0
179 1 2.045527400350906 0.28042077919945285 -6.783200220687592 0 0 0
180 2 0.8779025768848641 1.8671961468731304 -4.975700218917086 0 0 0
181 2 0.8779025771504791 3.7208376362973077 -3.1682002188666676 0 0 0
182 2 0.8779025766830273 5.547920153067533 2.254299781047639 0 0 0
183 2 -0.28972224659939627 7.732942102617304 2.2542997827312132 0 0 0
184 1 3.111031236564031 2.4393866120519228 -6.783200220632195 0 0 0
185 1 2.7565428702946804 4.062058962766056 -4.975700220335305 0 0 0
186 1 2.4202271128539508 5.9384972386863275 -3.1682002197779218 0 0 0
187 1 2.0455273990318688 7.7329421040067 -1.3607002206733247 0 0 0
188 2 0.8779025755068801 9.319717471744223 0.44679978107871915 0 0 0
189 2 0.8779025764776236 11.173358961291203 2.2542997811066816 0 0 0
190 2 0.8779025768906479 18.625880286546387 -6.783200218833868 0 0 1
191 2 0.877902575919336 16.77223879687646 5.869299781151898 0 0 0
192 1 4.530615395863961 4.573681366373098 -6.783200221076023 0 0 0
193 1 4.11602126666854 6.324616961076924 -4.975700220793146 0 0 0
194 1 3.649411675891912 8.17413550673805 -3.1682002208929636 0 0 0
195 1 3.111031235515341 9.891907936787145 -1.3607002206482375 0 0 0
196 1 2.7565428696946697 11.514580287647515 0.44679977967274603 0 0 0
197 1 2.420227112524131 13.39101856356248 2.254299780152966 0 0 0
198 1 2.045527399133107 15.185463428940746 4.061799779400899 0 0 0
199 2 0.8779025768994728 20.452962803243675 5.869299781001538 0 0 0
200 1 5.824424793050582 6.79776485661186 -6.783200221558796 0 0 0
201 1 5.372807756838867 8.561423052361175 -4.9757002214700305 0 0 0
202 1 4.964173029411299 10.305672493331986 -3.168200221333905 0 0 0
203 1 4.530615395316431 12.026202691016447 -1.3607002210794126 0 0 0
204 1 4.116021266458006 13.777138285797758 0.4467997792523863 0 0 0
205 1 3.6494116758779143 15.626656831547113 2.25429977918797 0 0 0
206 1 3.1110312356383787 17.344429261608564 4.061799779422724 0 0 0
207 1 2.75654287009759 18.967101612704152 5.8692997797141295 0 0 0
208 1 7.144789360024873 8.983481440271607 -6.783200222190004 0 0 0
209 1 6.72298080040494 10.733617711030565 -4.975700222028985 0 0 0
210 1 6.288443049017715 12.486201854730535 -3.1682002218292493 0 0 0
211 1 5.824424792838784 14.250286181187686 -1.3607002215276458 0 0 0
212 1 5.372807756873314 16.01394437705928 0.4467997785994596 0 0 0
213 1 4.964173029631894 17.758193818091865 2.2542997787238273 0 0 0
214 1 4.530615395756669 19.47872401588521 4.0617997790019835 0 0 0
215 1 4.116021267114363 21.22965961085084 5.869299779278553 0 0 0
216 1 8.471667165566544 11.173748256282177 -6.783200222700279 0 0 0
217 1 8.026421341545856 12.934036858106534 -4.975700222516393 0 0 0
218 1 7.576976694850174 14.689166636051656 -3.1682002222876813 0 0 0
219 1 7.144789360103374 16.436002764776116 -1.3607002221136522 0 0 0
220 1 6.722980800724045 18.18613903564231 0.4467997780609661 0 0 0
221 1 6.288443049520879 19.93872317946406 2.254299778254818 0 0 0
222 1 5.824424793545347 21.702807506082156 4.061799778574733 0 0 0
223 1 5.37280775776523 23.46646570215653 5.869299778674292 0 0 0
224 1 9.776258352248988 13.371369913963395 -6.783200223135772 0 0 0
225 1 9.338774303417026 15.123105251717622 -4.9757002229545 0 0 0
226 1 8.906200526274944 16.87259633286494 -3.16820022277444 0 0 0
227 1 8.471667165904762 18.626269580742804 -1.3607002225921823 0 0 0
228 1 8.026421342038773 20.386558182751603 0.44679977760190537 0 0 0
229 1 7.576976695468517 22.141687960921228 2.254299777826372 0 0 0
230 1 7.144789360862703 23.88852408989987 4.061799777995586 0 0 0
231 1 6.722980801598467 25.638660360984527 5.8692997781328655 0 0 0
232 1 11.096037869478025 15.559728258284931 -6.783200223438666 0 0 0
233 1 10.659476305838268 17.31277298383758 -4.975700223283511 0 0 0
234 1 10.218698103949407 19.068309011576883 -3.168200223089891 0 0 0
235 1 9.776258352625064 20.82389123856454 -1.3607002229959728 0 0 0
236 1 9.338774303888897 22.575626576586156 0.4467997771821428 0 0 0
237 1 8.906200526890174 24.325117657993143 2.254299777350663 0 0 0
238 1 8.471667166692654 26.07879090607874 4.061799777505506 0 0 0
239 1 8.026421342936047 27.83907950820773 5.869299777652326 0 0 0
240 1 12.410609342715333 17.752689504007026 -6.783200223655931 0 0 0
241 1 11.97038576194349 19.507081368087224 -4.975700223553355 0 0 0
242 1 11.531902985690408 21.260165850824446 -3.1682002234756435 0 0 0
243 1 11.096037869807802 23.012249583114393 -1.3607002232955163 0 0 0
244 1 10.659476306346548 24.765294308907013 0.44679977684622296 0 0 0
245 1 10.218698104646407 26.520830336865256 2.2542997770105546 0 0 0
246 1 9.776258353460321 28.276412564026 4.061799777068042 0 0 0
247 1 13.724505845996177 19.944783141796595 -6.783200223912658 0 0 0
248 1 13.287039395253387 21.6976872383505 -4.9757002238009065 0 0 0
249 1 12.849654790653588 23.450934895187824 -3.1682002236800497 0 0 0
250 1 12.410609343107964 25.205210829014387 -1.3607002235305556 0 0 0
251 1 11.97038576249895 26.959602693334784 0.4467997765450243 0 0 0
252 1 11.531902986370454 28.712687176302058 2.2542997765952903 0 0 0
253 1 15.04074894618239 22.13610807246295 -6.783200224058842 0 0 0
254 1 14.602237315932129 23.889884422469752 -4.975700223975992 0 0 0
255 1 14.163129289793076 25.643841768099843 -3.168200223837431 0 0 0
256 1 13.724505846339696 27.397304467065606 -1.360700223821951 0 0 0
257 1 13.287039395711858 29.150208563853322 0.4467997762559896 0 0 0
258 1 16.355249110918606 24.328411788160384 -6.783200224206331 0 0 0
259 1 15.916711235078083 26.081971475012534 -4.975700224131759 0 0 0
260 1 15.478658051756582 27.83527226166599 -3.1682002240900715 0 0 0
261 1 17.67043319131554 26.52015663590625 -6.783200224455512 0 0 0
262 1 17.23227445931235 28.273605424323005 -4.97570022436699 0 0 0
263 1 18.985630008529384 28.71204186292881 -6.783200224694911 0 0 0
264 2 -0.28972224406402347 -7.172100546906538 -4.975700217335057 0 0 0
265 2 0.877902578537487 -3.7316836882759645 -4.975700218888333 0 0 0
266 2 0.877902578013888 -1.9046011715322493 -3.168200218954136 0 0 0
267 2 0.8779025780228693 -1.9046011715510005 0.4467997810470498 0 0 0
268 2 -0.28972224530538426 0.280420778028418 0.44679978273683846 0 0 0
269 1 2.7565428716878415 -3.3904623617872858 -6.7832002203402375 0 0 0
270 1 2.420227114247851 -1.514024086005854 -4.975700219804959 0 0 0
271 1 2.04552740033553 0.2804207791993676 -3.168200220691574 0 0 0
272 2 0.8779025768828888 1.8671961468738303 -1.3607002189138215 0 0 0
273 2 0.8779025771539182 3.720837636301251 0.4467997811382901 0 0 0
274 2 -0.2897222465532252 7.732942102594276 5.869299782733041 0 0 0
275 2 0.8779025764767141 11.173358961295154 5.869299781091247 0 0 0
276 1 4.116021268121827 -1.1279043635474686 -6.783200220799726 0 0 0
277 1 3.6494116772447 0.7216141820236821 -4.9757002209073145 0 0 0
278 1 3.111031236565168 2.4393866120504306 -3.168200220635342 0 0 0
279 1 2.75654287030126 4.062058962756705 -1.3607002203325558 0 0 0
280 1 2.4202271128546187 5.93849723868713 0.4467997802289822 0 0 0
281 1 2.0455273990698544 7.732942104018978 2.2542997793255983 0 0 0
282 2 0.8779025755077043 9.319717471744145 4.061799781087 0 0 0
283 2 -0.28972224652720513 15.185463427636886 -6.783200217219583 0 0 1
284 1 5.3728077580944245 1.108901727818651 -6.783200221473076 0 0 0
285 1 4.964173030321945 2.8531511687898963 -4.975700221341245 0 0 0
286 1 4.530615395865382 4.573681366375549 -3.1682002210754114 0 0 0
287 1 4.116021266674011 6.3246169610715235 -1.360700220795041 0 0 0
288 1 3.6494116758913577 8.1741355067407 0.4467997791179098 0 0 0
289 1 3.1110312355198033 9.891907936776736 2.2542997793541004 0 0 0
290 1 2.7565428696888716 11.514580287647082 4.061799779672089 0 0 0
291 1 2.42022711252082 13.391018563557697 5.869299780183794 0 0 0
292 1 6.722980801241349 3.2810963866837533 -6.783200222031282 0 0 0
293 1 6.288443049533285 5.033680530298934 -4.975700221851949 0 0 0
294 1 5.824424793051335 6.7977648566101045 -3.1682002215570173 0 0 0
295 1 5.372807756839265 8.561423052362596 -1.3607002214720099 0 0 0
296 1 4.964173029411228 10.305672493334693 0.4467997786640971 0 0 0
297 1 4.530615395318719 12.026202691020746 2.2542997789131323 0 0 0
298 1 4.11602126644118 13.777138285824794 4.061799779253405 0 0 0
299 1 3.649411675889141 15.626656831549067 5.869299779103884 0 0 0
300 1 8.026421342046888 5.481515533848775 -6.783200222549746 0 0 0
301 1 7.576976695054924 7.236645311672046 -4.975700222349869 0 0 0
302 1 7.144789360023978 8.983481440273255 -3.1682002221878176 0 0 0
303 1 6.72298080040558 10.733617711031084 -1.3607002220316653 0 0 0
304 1 6.288443049010581 12.486201854733704 0.44679977816975003 0 0 0
305 1 5.824424792838343 14.25028618118704 2.2542997784693997 0 0 0
306 1 5.372807756854897 16.01394437705532 4.061799778602775 0 0 0
307 1 4.964173029644471 17.758193818082102 5.869299778728917 0 0 0
308 1 9.338774303595756 7.67058392754608 -6.783200223031766 0 0 0
309 1 8.906200526155516 9.420075008569999 -4.975700222876893 0 0 0
310 1 8.471667165565563 11.173748256284536 -3.1682002226997157 0 0 0
311 1 8.026421341546765 12.934036858108026 -1.3607002225182472 0 0 0
312 1 7.576976694848199 14.689166636054377 0.4467997777141939 0 0 0
313 1 7.144789360108149 16.436002764775328 2.2542997778813176 0 0 0
314 1 6.722980800726418 18.186139035645322 4.061799778065589 0 0 0
315 1 6.288443049533413 19.938723179458588 5.869299778251903 0 0 0
316 1 10.65947630573558 9.860251659700555 -6.783200223399437 0 0 0
317 1 10.218698103671684 11.615787687223229 -4.975700223224769 0 0 0
318 1 9.776258352248277 13.37136991396368 -3.1682002231364153 0 0 0
319 1 9.33877430341856 15.123105251717394 -1.3607002229541831 0 0 0
320 1 8.906200526274276 16.87259633286457 0.44679977722736164 0 0 0
321 1 8.471667165907206 18.626269580740708 2.254299777407749 0 0 0
322 1 8.02642134203711 20.386558182750118 4.061799777606083 0 0 0
323 1 7.576976695471274 22.141687960918777 5.86929977782611 0 0 0
324 1 11.970385761826549 12.054560043784978 -6.7832002236949025 0 0 0
325 1 11.531902985483256 13.807644526253828 -4.975700223619194 0 0 0
326 1 11.096037869478451 15.5597282582853 -3.1682002234387463 0 0 0
327 1 10.659476305839675 17.312772983837778 -1.3607002232832055 0 0 0
328 1 10.218698103951255 19.068309011578005 0.44679977691046874 0 0 0
329 1 9.776258352625845 20.82389123856475 2.2542997770048525 0 0 0
330 1 9.338774303888982 22.575626576587364 4.06179977718272 0 0 0
331 1 8.906200526891425 24.325117657993484 5.869299777350591 0 0 0
332 1 13.287039395178468 14.245165913815033 -6.783200223943135 0 0 0
333 1 12.84965479042296 15.998413570411184 -4.975700223812225 0 0 0
334 1 12.410609342715333 17.752689504006593 -3.168200223655625 0 0 0
335 1 11.970385761943305 19.507081368086947 -1.3607002235534147 0 0 0
336 1 11.53190298569048 21.26016585082419 0.4467997765257131 0 0 0
337 1 11.096037869806338 23.012249583113498 2.2542997767052673 0 0 0
338 1 10.659476306346548 24.76529430890673 4.061799776847262 0 0 0
339 1 10.218698104646606 26.52083033686571 5.869299777010798 0 0 0
340 1 14.602237315837627 16.437363097708765 -6.783200224097554 0 0 0
341 1 14.163129289568673 18.191320443080908 -4.9757002239420505 0 0 0
342 1 13.724505845997044 19.94478314179708 -3.1682002239141234 0 0 0
343 1 13.28703939525299 21.697687238351175 -1.3607002238010641 0 0 0
344 1 12.849654790653517 23.450934895188023 0.44679977632072987 0 0 0
345 1 12.410609343107765 25.205210829014955 2.2542997764694155 0 0 0
346 1 11.970385762498395 26.959602693334784 4.061799776545121 0 0 0
347 1 11.531902986371875 28.712687176303294 5.869299776594363 0 0 0
348 1 15.916711235079376 18.629450149933565 -6.7832002242185485 0 0 0
349 1 15.478658051630518 20.382750936338955 -4.975700224155701 0 0 0
350 1 15.040748946183498 22.136108072462743 -3.168200224056975 0 0 0
351 1 14.602237315931731 23.889884422469063 -1.3607002239756751 0 0 0
352 1 14.163129289793233 25.64384176809983 0.4467997761629609 0 0 0
353 1 13.724505846338317 27.397304467063766 2.2542997761786827 0 0 0
354 1 13.287039395713222 29.150208563853358 4.061799776255252 0 0 0
355 1 17.23227445934411 20.82108409900152 -6.783200224413924 0 0 0
356 1 16.793905857521636 22.574693358508515 -4.975700224294113 0 0 0
357 1 16.35524911091828 24.328411788160768 -3.168200224206766 0 0 0
358 1 15.916711235079134 26.081971475011887 -1.3607002241318156 0 0 0
359 1 15.478658051756184 27.835272261666216 0.4467997759105723 0 0 0
360 1 18.547158588187983 23.013135812442012 -6.78320022456892 0 0 0
361 1 18.10869921472225 24.766703140932886 -4.975700224535221 0 0 0
362 1 17.67043319131585 26.52015663590596 -3.1682002244569425 0 0 0
363 1 17.232274459310034 28.273605424321683 -1.3607002243672424 0 0 0
364 1 19.862247795836282 25.204987335627262 -6.783200224866697 0 0 0
365 1 19.423971955100725 26.958484932724243 -4.975700224810173 0 0 0
366 1 18.985630008529867 28.71204186292842 -3.1682002246939267 0 0 0
367 1 21.17739380490218 27.39686652718977 -6.783200225051615 0 0 0
368 1 20.73899372812562 29.150437310341413 -4.975700224960434 0 0 0
369 2 0.8779025790926909 -9.357122496381521 -4.975700218944108 0 0 0
370 2 0.877902579075041 -9.357122496365111 -1.3607002189435067 0 0 0
371 2 -0.2897222440297611 -7.172100546917321 -1.3607002173362484 0 0 0
372 1 2.420227115271814 -8.966545410660249 -6.783200219895149 0 0 0
373 1 2.045527401566332 -7.172100545461181 -4.975700220693587 0 0 0
374 2 0.8779025783160392 -5.585325177756715 -3.168200218958431 0 0 0
375 2 0.8779025785377286 -3.731683688279084 -1.3607002188849238 0 0 0
376 2 -0.28972224526307855 0.28042077801496035 4.0617997827345915 0 0 0
377 2 0.8779025771507634 3.7208376362970945 4.06179978113257 0 0 0
378 1 3.6494116783798347 -6.73090714261977 -6.783200220928082 0 0 0
379 1 3.1110312378031892 -5.013134712583746 -4.975700220642073 0 0 0
380 1 2.7565428716867615 -3.3904623617900604 -3.16820022033739 0 0 0
381 1 2.420227114243829 -1.5140240860059286 -1.3607002198028944 0 0 0
382 1 2.0455274003716255 0.2804207792044906 0.4467997793121659 0 0 0
383 2 0.8779025768842672 1.8671961468736136 2.254299781083343 0 0 0
384 2 0.8779025755076191 9.319717471743896 -6.783200218921513 0 0 1
385 2 0.877902576287994 13.000441478078638 -6.783200218881445 0 0 1
386 1 4.96417303158762 -4.59937015588061 -6.783200221347958 0 0 0
387 1 4.530615397270907 -2.8788399582567337 -4.9757002210866865 0 0 0
388 1 4.116021268121543 -1.1279043635478239 -3.168200220801422 0 0 0
389 1 3.6494116772391862 0.7216141820271247 -1.360700220902107 0 0 0
390 1 3.111031236562326 2.4393866120456273 0.4467997793672289 0 0 0
391 1 2.7565428702915256 4.06205896276931 2.2542997796652346 0 0 0
392 1 2.420227112852956 5.938497238685489 4.061799780223203 0 0 0
393 1 2.045527399027307 7.732942104003467 5.869299779326233 0 0 0
394 1 6.2884430508941165 -2.41884079436797 -6.783200221860605 0 0 0
395 1 5.824424794445221 -0.654756467971314 -4.97570022156522 0 0 0
396 1 5.372807758092691 1.108901727818381 -3.168200221471951 0 0 0
397 1 4.964173030320211 2.8531511687901947 -1.360700221340281 0 0 0
398 1 4.530615395864359 4.5736813663741 0.4467997789235879 0 0 0
399 1 4.116021266667076 6.324616961077698 2.2542997792055526 0 0 0
400 1 3.649411675891912 8.174135506738406 4.061799779104603 0 0 0
401 1 3.111031235516336 9.891907936789533 5.869299779351802 0 0 0
402 1 7.576976696293556 -0.21587601282434576 -6.783200222348912 0 0 0
403 1 7.144789361122463 1.5309601158909203 -4.975700222196371 0 0 0
404 1 6.72298080124132 3.281096386685075 -3.1682002220328767 0 0 0
405 1 6.288443049532731 5.03368053029806 -1.3607002218524469 0 0 0
406 1 5.824424793050625 6.797764856611661 0.4467997784411977 0 0 0
407 1 5.37280775683891 8.561423052361238 2.2542997785302132 0 0 0
408 1 4.964173029411199 10.305672493332107 4.061799778665929 0 0 0
409 1 4.530615395316445 12.026202691016092 5.869299778921221 0 0 0
410 1 8.906200527090036 1.9675536843279282 -6.783200222878473 0 0 0
411 1 8.471667166327208 3.7212269320862212 -4.975700222719051 0 0 0
412 1 8.02642134204747 5.48151553384773 -3.168200222549743 0 0 0
413 1 7.576976695055151 7.236645311671705 -1.3607002223490086 0 0 0
414 1 7.144789360025044 8.983481440271756 0.4467997778100095 0 0 0
415 1 6.72298080040494 10.733617711030742 2.2542997779707052 0 0 0
416 1 6.288443049017786 12.486201854730528 4.061799778170498 0 0 0
417 1 5.824424792837874 14.250286181188056 5.869299778472739 0 0 0
418 1 10.218698104377893 4.163266363157465 -6.783200223257867 0 0 0
419 1 9.7762583527268 5.918848589878511 -4.975700223191974 0 0 0
420 1 9.338774303595372 7.670583927546115 -3.168200223032029 0 0 0
421 1 8.906200526156468 9.420075008570276 -1.3607002228768583 0 0 0
422 1 8.471667165566302 11.173748256282341 0.44679977729958775 0 0 0
423 1 8.026421341545344 12.934036858106719 2.2542997774835807 0 0 0
424 1 7.576976694849819 14.689166636051763 4.061799777712134 0 0 0
425 1 7.144789360103189 16.436002764775903 5.869299777886126 0 0 0
426 1 11.531902985898313 6.355123202341009 -6.783200223687197 0 0 0
427 1 11.096037869625434 8.107206934304127 -4.97570022353639 0 0 0
428 1 10.659476305736717 9.860251659700065 -3.1682002233998294 0 0 0
429 1 10.218698103672324 11.615787687225126 -1.3607002232245071 0 0 0
430 1 9.776258352249172 13.371369913963331 0.4467997768644826 0 0 0
431 1 9.338774303416955 15.123105251717664 2.25429977704578 0 0 0
432 1 8.906200526274787 16.872596332864905 4.061799777225516 0 0 0
433 1 8.471667165904478 18.62626958074281 5.869299777407875 0 0 0
434 1 12.84965479060962 8.545892246569597 -6.783200223909943 0 0 0
435 1 12.410609342724939 10.300168179974104 -4.975700223780651 0 0 0
436 1 11.970385761826904 12.054560043785298 -3.1682002236946087 0 0 0
437 1 11.531902985483413 13.807644526253934 -1.3607002236187111 0 0 0
438 1 11.096037869477982 15.559728258284874 0.44679977656192094 0 0 0