#LAMMPS data file
14624 atoms
2 atom types
-125.2250000000 125.2250000000 xlo xhi
-29.8100853000 29.8100853000 ylo yhi
-7.2300000000 7.2300000000 zlo zhi
0.0 0.0 0.0 xy xz yz

Atoms # atomic

1 2 0.686070 28.150437 -6.781703
2 2 -0.327910 22.606686 -4.974201
3 2 0.830212 24.241750 -6.781704
4 2 0.835320 26.126348 -4.974204
5 2 0.686070 28.150437 -3.166703
6 1 2.611156 26.558396 -6.781705
7 1 2.323317 28.394695 -4.974204
8 1 4.008970 28.809608 -6.781705
9 2 0.866270 18.631654 -6.781703
10 2 0.858108 20.460045 -4.974203
11 2 -0.327910 22.606686 -1.359201
12 1 2.385279 20.893770 -6.781704
13 1 2.004726 22.690296 -4.974205
14 2 0.830212 24.241750 -3.166704
15 2 0.835320 26.126348 -1.359204
16 2 0.686070 28.150437 0.448297
17 1 3.593866 23.150336 -6.781706
18 1 3.039056 24.886207 -4.974205
19 1 2.611156 26.558396 -3.166705
20 1 2.323317 28.394695 -1.359204
21 1 4.859640 25.313406 -6.781706
22 1 4.431425 27.037234 -4.974206
23 1 4.008970 28.809608 -3.166705
24 1 6.201974 27.483473 -6.781707
25 1 5.772066 29.233669 -4.974207
26 2 0.868943 13.005181 -6.781703
27 2 -0.307855 15.170512 -3.166701
28 1 2.026982 15.210887 -6.781705
29 2 0.844797 16.776965 -4.974203
30 2 0.866270 18.631654 -3.166703
31 2 0.858108 20.460045 -1.359203
32 2 -0.327910 22.606686 2.255799
33 1 3.097822 17.373422 -6.781705
34 1 2.743141 19.000059 -4.974205
35 1 2.385279 20.893770 -3.166704
36 1 2.004726 22.690296 -1.359205
37 2 0.830212 24.241750 0.448296
38 2 0.835320 26.126348 2.255796
39 2 0.686070 28.150437 4.063297
40 1 4.499433 19.529941 -6.781706
41 1 4.074920 21.288301 -4.974205
42 1 3.593866 23.150336 -3.166705
43 1 3.039056 24.886207 -1.359205
44 1 2.611156 26.558396 0.448295
45 1 2.323317 28.394695 2.255796
46 1 5.770850 21.773136 -6.781707
47 1 5.302165 23.549969 -4.974206
48 1 4.859640 25.313406 -3.166706
49 1 4.431425 27.037234 -1.359206
50 1 4.008970 28.809608 0.448295
51 1 7.062997 23.976386 -6.781708
52 1 6.633250 25.729723 -4.974207
53 1 6.201974 27.483473 -3.166707
54 1 5.772066 29.233669 -1.359207
55 1 8.398727 26.157968 -6.781708
56 1 7.971336 27.908713 -4.974208
57 1 9.743675 28.334051 -6.781709
58 2 -0.299116 7.724292 -4.974201
59 2 0.857522 9.324503 -6.781703
60 2 0.873690 11.178088 -4.974203
61 2 0.868943 13.005180 -3.166703
62 2 -0.307855 15.170512 0.448299
63 1 2.752803 11.535510 -6.781705
64 1 2.405088 13.417302 -4.974204
65 1 2.026982 15.210887 -3.166705
66 2 0.844797 16.776965 -1.359203
67 2 0.866270 18.631654 0.448297
68 2 0.858108 20.460045 2.255797
69 2 -0.327910 22.606686 5.870799
70 1 4.100780 13.809736 -6.781706
71 1 3.631782 15.658772 -4.974206
72 1 3.097822 17.373422 -3.166706
73 1 2.743141 19.000059 -1.359205
74 1 2.385279 20.893770 0.448296
75 1 2.004726 22.690296 2.255795
76 2 0.830212 24.241750 4.063296
77 2 0.835320 26.126348 5.870796
78 1 5.355156 16.053059 -6.781707
79 1 4.944263 17.800124 -4.974206
80 1 4.499433 19.529941 -3.166706
81 1 4.074920 21.288301 -1.359205
82 1 3.593866 23.150336 0.448294
83 1 3.039056 24.886207 2.255795
84 1 2.611156 26.558396 4.063295
85 1 2.323317 28.394695 5.870796
86 1 6.692431 18.239671 -6.781707
87 1 6.247494 19.999152 -4.974207
88 1 5.770850 21.773136 -3.166707
89 1 5.302165 23.549969 -1.359206
90 1 4.859640 25.313406 0.448294
91 1 4.431425 27.037234 2.255794
92 1 4.008970 28.809608 4.063295
93 1 7.976260 20.455119 -6.781708
94 1 7.512900 22.219143 -4.974208
95 1 7.062997 23.976386 -3.166708
96 1 6.633250 25.729723 -1.359207
97 1 6.201974 27.483473 0.448293
98 1 5.772066 29.233669 2.255793
99 1 9.270587 22.654644 -6.781709
100 1 8.831019 24.406569 -4.974209
101 1 8.398727 26.157968 -3.166708
102 1 7.971336 27.908713 -1.359208
103 1 10.597182 24.838069 -6.781710
104 1 10.166828 26.586893 -4.974210
105 1 9.743675 28.334051 -3.166709
106 1 11.935291 27.017210 -6.781711
107 1 11.511935 28.764620 -4.974211
108 1 13.274031 29.199651 -6.781712
109 2 0.878849 3.726225 -6.781704
110 2 0.874832 5.553286 -4.974203
111 2 -0.299116 7.724292 -1.359201
112 1 2.413211 5.959513 -6.781704
113 1 2.036042 7.752713 -4.974205
114 2 0.857522 9.324503 -3.166703
115 2 0.873690 11.178088 -1.359203
116 2 0.868943 13.005181 0.448297
117 2 -0.307855 15.170512 4.063299
118 1 3.641932 8.198321 -6.781706
119 1 3.107505 9.912485 -4.974206
120 1 2.752803 11.535510 -3.166705
121 1 2.405088 13.417302 -1.359205
122 1 2.026982 15.210887 0.448295
123 2 0.844797 16.776965 2.255797
124 2 0.866270 18.631654 4.063297
125 2 0.858108 20.460045 5.870797
126 1 4.958267 10.334697 -6.781706
127 1 4.519676 12.057834 -4.974206
128 1 4.100780 13.809736 -3.166706
129 1 3.631782 15.658772 -1.359206
130 1 3.097822 17.373422 0.448295
131 1 2.743141 19.000059 2.255795
132 1 2.385279 20.893770 4.063296
133 1 2.004726 22.690296 5.870795
134 1 6.274856 12.524115 -6.781707
135 1 5.808072 14.289028 -4.974207
136 1 5.355156 16.053059 -3.166707
137 1 4.944263 17.800124 -1.359206
138 1 4.499433 19.529941 0.448294
139 1 4.074920 21.288301 2.255795
140 1 3.593866 23.150336 4.063295
141 1 3.039056 24.886207 5.870795
142 1 7.558308 14.734206 -6.781708
143 1 7.122149 16.483788 -4.974208
144 1 6.692431 18.239671 -3.166707
145 1 6.247494 19.999152 -1.359207
146 1 5.770850 21.773136 0.448293
147 1 5.302165 23.549969 2.255794
148 1 4.859640 25.313406 4.063294
149 1 4.431425 27.037234 5.870794
150 1 8.876368 16.928617 -6.781709
151 1 8.432781 18.687768 -4.974208
152 1 7.976260 20.455119 -3.166708
153 1 7.512900 22.219143 -1.359208
154 1 7.062997 23.976386 0.448292
155 1 6.633250 25.729723 2.255793
156 1 6.201974 27.483473 4.063293
157 1 5.772066 29.233669 5.870793
158 1 10.173105 19.135800 -6.781709
159 1 9.719725 20.897164 -4.974209
160 1 9.270587 22.654644 -3.166709
161 1 8.831019 24.406569 -1.359209
162 1 8.398727 26.157968 0.448292
163 1 7.971336 27.908713 2.255792
164 1 11.474075 21.334268 -6.781710
165 1 11.032771 23.087449 -4.974210
166 1 10.597182 24.838069 -3.166710
167 1 10.166828 26.586893 -1.359210
168 1 9.743675 28.334051 0.448291
169 1 12.796108 23.520381 -6.781711
170 1 12.363305 25.269542 -4.974211
171 1 11.935291 27.017210 -3.166711
172 1 11.511935 28.764620 -1.359211
173 1 14.128701 25.702211 -6.781713
174 1 13.700682 27.450324 -4.974212
175 1 13.274031 29.199651 -3.166712
176 1 15.462268 27.886030 -6.781714
177 2 0.879641 -1.898431 -6.781703
178 2 -0.293750 0.273563 -3.166702
179 1 2.041471 0.299962 -6.781705
180 2 0.863402 1.872762 -4.974204
181 2 0.878849 3.726225 -3.166704
182 2 0.874832 5.553286 -1.359203
183 2 -0.299116 7.724292 2.255799
184 1 3.113408 2.458827 -6.781705
185 1 2.758284 4.080687 -4.974205
186 1 2.413211 5.959513 -3.166704
187 1 2.036042 7.752713 -1.359205
188 2 0.857522 9.324503 0.448297
189 2 0.873690 11.178088 2.255797
190 2 0.868943 13.005180 4.063297
191 2 -0.307855 15.170512 -6.781701
192 1 4.528076 4.601062 -6.781706
193 1 4.110030 6.351158 -4.974206
194 1 3.641932 8.198321 -3.166706
195 1 3.107505 9.912485 -1.359205
196 1 2.752803 11.535510 0.448295
197 1 2.405088 13.417302 2.255796
198 1 2.026982 15.210887 4.063295
199 2 0.844797 16.776965 5.870797
200 1 5.819333 6.829390 -6.781707
201 1 5.367320 8.591081 -4.974207
202 1 4.958267 10.334697 -3.166706
203 1 4.519676 12.057834 -1.359206
204 1 4.100780 13.809736 0.448294
205 1 3.631782 15.658772 2.255794
206 1 3.097822 17.373422 4.063295
207 1 2.743141 19.000059 5.870795
208 1 7.138422 9.019753 -6.781708
209 1 6.713230 10.770603 -4.974207
210 1 6.274856 12.524115 -3.166707
211 1 5.808072 14.289028 -1.359207
212 1 5.355156 16.053059 0.448293
213 1 4.944263 17.800124 2.255794
214 1 4.499433 19.529941 4.063294
215 1 4.074920 21.288301 5.870795
216 1 8.459481 11.217007 -6.781708
217 1 8.010777 12.978001 -4.974208
218 1 7.558308 14.734206 -3.166708
219 1 7.122149 16.483788 -1.359208
220 1 6.692431 18.239671 0.448293
221 1 6.247494 19.999152 2.255793
222 1 5.770850 21.773136 4.063293
223 1 5.302165 23.549969 5.870794
224 1 9.757944 13.421387 -6.781709
225 1 9.315739 15.175217 -4.974209
226 1 8.876368 16.928617 -3.166709
227 1 8.432781 18.687768 -1.359208
228 1 7.976260 20.455119 0.448292
229 1 7.512900 22.219143 2.255792
230 1 7.062997 23.976386 4.063292
231 1 6.633250 25.729723 5.870793
232 1 11.067867 15.618438 -6.781710
233 1 10.623388 17.375322 -4.974210
234 1 10.173105 19.135800 -3.166709
235 1 9.719725 20.897164 -1.359209
236 1 9.270587 22.654644 0.448291
237 1 8.831019 24.406569 2.255791
238 1 8.398727 26.157968 4.063292
239 1 7.971336 27.908713 5.870792
240 1 12.369945 17.820011 -6.781711
241 1 11.920997 19.577994 -4.974210
242 1 11.474075 21.334268 -3.166710
243 1 11.032771 23.087449 -1.359210
244 1 10.597182 24.838069 0.448290
245 1 10.166828 26.586893 2.255790
246 1 9.743675 28.334051 4.063291
247 1 13.675193 20.016420 -6.781712
248 1 13.233408 21.769444 -4.974211
249 1 12.796108 23.520381 -3.166711
250 1 12.363305 25.269542 -1.359211
251 1 11.935291 27.017210 0.448289
252 1 11.511935 28.764620 2.255789
253 1 14.994657 22.204138 -6.781713
254 1 14.559864 23.953743 -4.974213
255 1 14.128701 25.702211 -3.166713
256 1 13.700682 27.450324 -1.359212
257 1 13.274031 29.199651 0.448288
258 1 16.323028 24.388072 -6.781714
259 1 15.891985 26.136775 -4.974214
260 1 15.462268 27.886030 -3.166714
261 1 17.652813 26.573054 -6.781715
262 1 17.221175 28.323301 -4.974215
263 1 18.978562 28.761372 -6.781716
264 2 -0.289488 -7.180507 -4.974201
265 2 0.865157 -5.578895 -6.781703
266 2 0.884146 -3.725510 -4.974203
267 2 0.879641 -1.898431 -3.166703
268 2 -0.293750 0.273563 0.448298
269 1 2.763954 -3.370060 -6.781705
270 1 2.418630 -1.492777 -4.974204
271 1 2.041471 0.299962 -3.166705
272 2 0.863402 1.872762 -1.359204
273 2 0.878849 3.726225 0.448296
274 2 0.874832 5.553286 2.255797
275 2 -0.299116 7.724293 5.870799
276 1 4.116284 -1.100474 -6.781706
277 1 3.648020 0.745236 -4.974206
278 1 3.113408 2.458827 -3.166705
279 1 2.758284 4.080687 -1.359205
280 1 2.413211 5.959513 0.448296
281 1 2.036042 7.752713 2.255795
282 2 0.857522 9.324503 4.063297
283 2 0.873690 11.178088 5.870797
284 1 5.374520 1.138188 -6.781706
285 1 4.965493 2.880143 -4.974206
286 1 4.528076 4.601062 -3.166706
287 1 4.110030 6.351158 -1.359206
288 1 3.641932 8.198321 0.448294
289 1 3.107505 9.912485 2.255794
290 1 2.752803 11.535510 4.063295
291 1 2.405088 13.417302 5.870795
292 1 6.722686 3.315445 -6.781707
293 1 6.285203 5.066791 -4.974207
294 1 5.819333 6.829390 -3.166707
295 1 5.367320 8.591081 -1.359207
296 1 4.958267 10.334697 0.448294
297 1 4.519676 12.057834 2.255794
298 1 4.100780 13.809736 4.063294
299 1 3.631782 15.658772 5.870794
300 1 8.023384 5.520175 -6.781708
301 1 7.572277 7.273678 -4.974208
302 1 7.138422 9.019753 -3.166708
303 1 6.713230 10.770603 -1.359207
304 1 6.274856 12.524115 0.448293
305 1 5.808072 14.289028 2.255793
306 1 5.355156 16.053059 4.063293
307 1 4.944263 17.800124 5.870794
308 1 9.333291 7.713641 -6.781709
309 1 8.897621 9.462906 -4.974209
310 1 8.459481 11.217007 -3.166708
311 1 8.010777 12.978001 -1.359208
312 1 7.558308 14.734206 0.448292
313 1 7.122149 16.483788 2.255792
314 1 6.692431 18.239671 4.063293
315 1 6.247494 19.999152 5.870793
316 1 10.648909 9.909006 -6.781710
317 1 10.204314 11.664868 -4.974209
318 1 9.757944 13.421387 -3.166709
319 1 9.315739 15.175217 -1.359209
320 1 8.876368 16.928617 0.448291
321 1 8.432781 18.687768 2.255792
322 1 7.976260 20.455119 4.063292
323 1 7.512900 22.219143 5.870792
324 1 11.953512 12.109301 -6.781710
325 1 11.510025 13.863756 -4.974210
326 1 11.067867 15.618438 -3.166710
327 1 10.623388 17.375322 -1.359210
328 1 10.173105 19.135800 0.448291
329 1 9.719725 20.897164 2.255791
330 1 9.270587 22.654644 4.063291
331 1 8.831019 24.406569 5.870791
332 1 13.261428 14.306838 -6.781711
333 1 12.817034 16.062536 -4.974211
334 1 12.369945 17.820011 -3.166711
335 1 11.920997 19.577994 -1.359210
336 1 11.474075 21.334268 0.448290
337 1 11.032771 23.087449 2.255790
338 1 10.597182 24.838069 4.063290
339 1 10.166828 26.586893 5.870790
340 1 14.566644 16.505434 -6.781712
341 1 14.120379 18.261396 -4.974212
342 1 13.675193 20.016420 -3.166712
343 1 13.233408 21.769444 -1.359211
344 1 12.796108 23.520381 0.448289
345 1 12.363305 25.269542 2.255789
346 1 11.935291 27.017210 4.063289
347 1 11.511935 28.764620 5.870789
348 1 15.874760 18.700317 -6.781713
349 1 15.433073 20.453035 -4.974213
350 1 14.994657 22.204138 -3.166713
351 1 14.559864 23.953743 -1.359213
352 1 14.128701 25.702211 0.448287
353 1 13.700682 27.450324 2.255788
354 1 13.274031 29.199651 4.063288
355 1 17.192742 20.889000 -6.781714
356 1 16.756474 22.639001 -4.974214
357 1 16.323028 24.388072 -3.166714
358 1 15.891985 26.136775 -1.359214
359 1 15.462268 27.886030 0.448286
360 1 18.517921 23.074490 -6.781715
361 1 18.084747 24.823663 -4.974215
362 1 17.652813 26.573054 -3.166715
363 1 17.221175 28.323301 -1.359215
364 1 19.844790 25.260407 -6.781717
365 1 19.411700 27.010487 -4.974217
366 1 18.978562 28.761372 -3.166716
367 1 21.169277 27.448605 -6.781718
368 1 20.735074 29.199881 -4.974218
369 2 0.891775 -11.177202 -6.781703
370 2 0.884943 -9.349989 -4.974203
371 2 -0.289488 -7.180507 -1.359201
372 1 2.423765 -8.940279 -6.781704
373 1 2.045747 -7.148710 -4.974205
374 2 0.865157 -5.578895 -3.166703
375 2 0.884146 -3.725510 -1.359203
376 2 0.879641 -1.898431 0.448297
377 2 -0.293750 0.273563 4.063298
378 1 3.653783 -6.702464 -6.781706
379 1 3.119804 -4.990697 -4.974205
380 1 2.763953 -3.370060 -3.166705
381 1 2.418630 -1.492777 -1.359204
382 1 2.041471 0.299962 0.448295
383 2 0.863402 1.872762 2.255796
384 2 0.878849 3.726225 4.063296
385 2 0.874832 5.553286 5.870797
386 1 4.972736 -4.568071 -6.781706
387 1 4.534868 -2.849009 -4.974206
388 1 4.116284 -1.100473 -3.166705
389 1 3.648020 0.745236 -1.359206
390 1 3.113408 2.458827 0.448295
391 1 2.758284 4.080687 2.255795
392 1 2.413211 5.959513 4.063296
393 1 2.036042 7.752713 5.870795
394 1 6.293188 -2.382325 -6.781707
395 1 5.826834 -0.621771 -4.974207
396 1 5.374520 1.138188 -3.166706
397 1 4.965493 2.880143 -1.359206
398 1 4.528076 4.601062 0.448294
399 1 4.110030 6.351158 2.255794
400 1 3.641932 8.198321 4.063294
401 1 3.107505 9.912485 5.870795
402 1 7.581336 -0.176919 -6.781708
403 1 7.147384 1.566925 -4.974208
404 1 6.722686 3.315445 -3.166707
405 1 6.285203 5.066791 -1.359207
406 1 5.819333 6.829390 0.448293
407 1 5.367320 8.591081 2.255793
408 1 4.958267 10.334697 4.063294
409 1 4.519676 12.057834 5.870794
410 1 8.908700 2.010140 -6.781709
411 1 8.471135 3.761723 -4.974209
412 1 8.023384 5.520175 -3.166708
413 1 7.572277 7.273678 -1.359208
414 1 7.138422 9.019753 0.448292
415 1 6.713230 10.770603 2.255793
416 1 6.274856 12.524115 4.063293
417 1 5.808072 14.289028 5.870793
418 1 10.218316 4.209469 -6.781710
419 1 9.773268 5.963126 -4.974209
420 1 9.333292 7.713641 -3.166709
421 1 8.897621 9.462906 -1.359209
422 1 8.459481 11.217007 0.448292
423 1 8.010777 12.978001 2.255792
424 1 7.558308 14.734206 4.063292
425 1 7.122149 16.483788 5.870792
426 1 11.528374 6.405078 -6.781710
427 1 11.089150 8.156203 -4.974210
428 1 10.648909 9.909006 -3.166710
429 1 10.204314 11.664868 -1.359209
430 1 9.757944 13.421387 0.448291
431 1 9.315739 15.175217 2.255791
432 1 8.876368 16.928617 4.063291
433 1 8.432781 18.687768 5.870792
434 1 12.841260 8.600415 -6.781711
435 1 12.398105 10.354462 -4.974211
436 1 11.953512 12.109301 -3.166710
437 1 11.510025 13.863756 -1.359210
438 1 11.067867 15.618438 0.448290
439 1 10.623388 17.375322 2.255790
440 1 10.173105 19.135800 4.063291
441 1 9.719725 20.897164 5.870791
442 1 14.148547 10.798299 -6.781712
443 1 13.704829 12.552398 -4.974212
444 1 13.261428 14.306838 -3.166711
445 1 12.817034 16.062536 -1.359211
446 1 12.369945 17.820011 0.448289
447 1 11.920997 19.577994 2.255790
448 1 11.474075 21.334268 4.063290
449 1 11.032771 23.087449 5.870790
450 1 15.456291 12.995136 -6.781713
451 1 15.012072 14.749824 -4.974212
452 1 14.566644 16.505434 -3.166712
453 1 14.120379 18.261396 -1.359212
454 1 13.675193 20.016420 0.448288
455 1 13.233408 21.769444 2.255789
456 1 12.796108 23.520381 4.063289
457 1 12.363305 25.269542 5.870789
458 1 16.763402 15.191723 -6.781714
459 1 16.318688 16.946300 -4.974213
460 1 15.874760 18.700317 -3.166713
461 1 15.433073 20.453035 -1.359213
462 1 14.994657 22.204138 0.448287
463 1 14.559864 23.953743 2.255787
464 1 14.128701 25.702211 4.063287
465 1 13.700682 27.450324 5.870788
466 1 18.073309 17.385422 -6.781715
467 1 17.631822 19.137807 -4.974214
468 1 17.192742 20.889000 -3.166714
469 1 16.756474 22.639001 -1.359214
470 1 16.323028 24.388072 0.448286
471 1 15.891985 26.136775 2.255786
472 1 15.462268 27.886030 4.063286
473 1 19.390343 19.574630 -6.781716
474 1 18.953021 21.324942 -4.974216
475 1 18.517921 23.074490 -3.166715
476 1 18.084747 24.823663 -1.359215
477 1 17.652813 26.573054 0.448285
478 1 17.221175 28.323301 2.255785
479 1 20.713112 21.761228 -6.781717
480 1 20.278387 23.510802 -4.974217
481 1 19.844790 25.260407 -3.166717
482 1 19.411700 27.010487 -1.359217
483 1 18.978562 28.761372 0.448284
484 1 22.037668 23.947881 -6.781719
485 1 21.603389 25.697988 -4.974218
486 1 21.169277 27.448605 -3.166718
487 1 20.735074 29.199881 -1.359218
488 1 23.360887 26.136109 -6.781720
489 1 22.925965 27.887130 -4.974219
490 1 24.681986 28.325917 -6.781721
491 2 0.892609 -16.801364 -6.781703
492 2 -0.285644 -14.640855 -3.166701
493 1 2.049588 -14.588671 -6.781705
494 2 0.859749 -13.030381 -4.974203
495 2 0.891775 -11.177202 -3.166703
496 2 0.884943 -9.349989 -1.359203
497 2 -0.289488 -7.180507 2.255799
498 1 3.130712 -12.432773 -6.781706
499 1 2.772652 -10.815249 -4.974205
500 1 2.423765 -8.940279 -3.166704
501 1 2.045747 -7.148710 -1.359205
502 2 0.865157 -5.578895 0.448297
503 2 0.884146 -3.725510 2.255797
504 2 0.879641 -1.898431 4.063297
505 2 -0.293750 0.273563 -6.781702
506 1 4.544424 -10.290026 -6.781706
507 1 4.123178 -8.544978 -4.974206
508 1 3.653783 -6.702464 -3.166706
509 1 3.119804 -4.990697 -1.359205
510 1 2.763954 -3.370060 0.448295
511 1 2.418630 -1.492777 2.255796
512 1 2.041471 0.299962 4.063295
513 2 0.863402 1.872762 5.870796
514 1 5.835983 -8.063938 -6.781707
515 1 5.382397 -6.307495 -4.974206
516 1 4.972736 -4.568071 -3.166706
517 1 4.534868 -2.849009 -1.359206
518 1 4.116284 -1.100474 0.448294
519 1 3.648020 0.745236 2.255794
520 1 3.113408 2.458827 4.063295
521 1 2.758284 4.080687 5.870795
522 1 7.157269 -5.876858 -6.781707
523 1 6.731399 -4.131343 -4.974207
524 1 6.293188 -2.382325 -3.166707
525 1 5.826834 -0.621771 -1.359207
526 1 5.374520 1.138188 0.448294
527 1 4.965493 2.880143 2.255794
528 1 4.528076 4.601062 4.063294
529 1 4.110030 6.351158 5.870794
530 1 8.481534 -3.683816 -6.781708
531 1 8.032916 -1.928073 -4.974208
532 1 7.581336 -0.176919 -3.166708
533 1 7.147384 1.566925 -1.359208
534 1 6.722686 3.315445 0.448293
535 1 6.285203 5.066791 2.255793
536 1 5.819333 6.829390 4.063293
537 1 5.367320 8.591081 5.870793
538 1 9.784555 -1.484467 -6.781709
539 1 9.344229 0.263432 -4.974209
540 1 8.908700 2.010140 -3.166709
541 1 8.471135 3.761723 -1.359209
542 1 8.023384 5.520175 0.448292
543 1 7.572277 7.273678 2.255792
544 1 7.138422 9.019753 4.063292
545 1 6.713230 10.770603 5.870793
546 1 11.102081 0.706163 -6.781710
547 1 10.662147 2.456311 -4.974210
548 1 10.218316 4.209469 -3.166710
549 1 9.773268 5.963126 -1.359209
550 1 9.333291 7.713641 0.448291
551 1 8.897621 9.462906 2.255791
552 1 8.459481 11.217007 4.063292
553 1 8.010777 12.978001 5.870792
554 1 12.413499 2.901678 -6.781711
555 1 11.970004 4.653723 -4.974211
556 1 11.528374 6.405078 -3.166710
557 1 11.089150 8.156203 -1.359210
558 1 10.648909 9.909006 0.448290
559 1 10.204314 11.664868 2.255791
560 1 9.757944 13.421387 4.063291
561 1 9.315739 15.175217 5.870791
562 1 13.723727 5.096605 -6.781712
563 1 13.282554 6.848019 -4.974212
564 1 12.841260 8.600415 -3.166711
565 1 12.398105 10.354462 -1.359211
566 1 11.953512 12.109301 0.448290
567 1 11.510025 13.863756 2.255790
568 1 11.067867 15.618438 4.063290
569 1 10.623388 17.375322 5.870790
570 1 15.035083 7.291381 -6.781713
571 1 14.592255 9.044449 -4.974213
572 1 14.148547 10.798299 -3.166712
573 1 13.704829 12.552398 -1.359212
574 1 13.261428 14.306838 0.448289
575 1 12.817034 16.062536 2.255789
576 1 12.369945 17.820011 4.063289
577 1 11.920997 19.577994 5.870790
578 1 16.343566 9.487548 -6.781714
579 1 15.899970 11.241152 -4.974213
580 1 15.456291 12.995136 -3.166713
581 1 15.012072 14.749824 -1.359212
582 1 14.566644 16.505434 0.448288
583 1 14.120379 18.261396 2.255788
584 1 13.675193 20.016420 4.063288
585 1 13.233408 21.769444 5.870789
586 1 17.651731 11.683330 -6.781715
587 1 17.207835 13.437297 -4.974214
588 1 16.763402 15.191723 -3.166714
589 1 16.318688 16.946300 -1.359213
590 1 15.874760 18.700317 0.448287
591 1 15.433073 20.453035 2.255787
592 1 14.994657 22.204138 4.063287
593 1 14.559864 23.953743 5.870787
594 1 18.960109 13.878431 -6.781716
595 1 18.516385 15.632137 -4.974215
596 1 18.073309 17.385422 -3.166715
597 1 17.631822 19.137807 -1.359214
598 1 17.192742 20.889000 0.448286
599 1 16.756474 22.639001 2.255786
600 1 16.323028 24.388072 4.063286
601 1 15.891985 26.136775 5.870786
602 1 20.271109 16.071213 -6.781716
603 1 19.829831 17.823376 -4.974216
604 1 19.390343 19.574630 -3.166716
605 1 18.953021 21.324942 -1.359216
606 1 18.517921 23.074490 0.448285
607 1 18.084747 24.823663 2.255785
608 1 17.652813 26.573054 4.063285
609 1 17.221175 28.323301 5.870785
610 1 21.587461 18.260679 -6.781717
611 1 21.149411 20.011279 -4.974217
612 1 20.713112 21.761228 -3.166717
613 1 20.278387 23.510802 -1.359217
614 1 19.844790 25.260407 0.448283
615 1 19.411700 27.010487 2.255783
616 1 18.978562 28.761372 4.063284
617 1 22.908388 20.448051 -6.781719
618 1 22.472529 22.198011 -4.974219
619 1 22.037668 23.947881 -3.166719
620 1 21.603389 25.697988 -1.359218
621 1 21.169277 27.448605 0.448282
622 1 20.735074 29.199881 2.255782
623 1 24.231076 22.635279 -6.781720
624 1 23.795846 24.385545 -4.974220
625 1 23.360887 26.136109 -3.166720
626 1 22.925965 27.887130 -1.359219
627 1 25.553101 24.823606 -6.781721
628 1 25.117554 26.574566 -4.974221
629 1 24.681986 28.325917 -3.166721
630 1 26.873566 27.013233 -6.781723
631 1 26.437465 28.764875 -4.974222
632 1 28.192492 29.203931 -6.781724
633 2 -0.292453 -22.114155 -4.974201
634 2 0.807518 -20.477707 -6.781703
635 2 0.909170 -18.630269 -4.974203
636 2 0.892609 -16.801364 -3.166703
637 2 -0.285644 -14.640855 0.448299
638 1 2.796240 -18.237670 -6.781705
639 1 2.431374 -16.375671 -4.974205
640 1 2.049588 -14.588671 -3.166705
641 2 0.859749 -13.030381 -1.359203
642 2 0.891775 -11.177202 0.448297
643 2 0.884943 -9.349989 2.255797
644 2 -0.289488 -7.180507 5.870799
645 1 4.137447 -15.968672 -6.781706
646 1 3.662655 -14.138306 -4.974206
647 1 3.130712 -12.432774 -3.166706
648 1 2.772652 -10.815249 -1.359205
649 1 2.423765 -8.940279 0.448296
650 1 2.045747 -7.148710 2.255795
651 2 0.865157 -5.578895 4.063297
652 2 0.884146 -3.725510 5.870797
653 1 5.397778 -13.736737 -6.781707
654 1 4.985217 -12.004835 -4.974207
655 1 4.544424 -10.290026 -3.166706
656 1 4.123178 -8.544978 -1.359206
657 1 3.653783 -6.702464 0.448294
658 1 3.119804 -4.990697 2.255795
659 1 2.763953 -3.370060 4.063295
660 1 2.418630 -1.492777 5.870795
661 1 6.746195 -11.563877 -6.781707
662 1 6.304615 -9.820105 -4.974207
663 1 5.835983 -8.063938 -3.166707
664 1 5.382397 -6.307495 -1.359206
665 1 4.972736 -4.568071 0.448294
666 1 4.534868 -2.849009 2.255794
667 1 4.116284 -1.100473 4.063294
668 1 3.648020 0.745236 5.870794
669 1 8.046592 -9.363882 -6.781708
670 1 7.592788 -7.617026 -4.974208
671 1 7.157269 -5.876858 -3.166707
672 1 6.731399 -4.131343 -1.359207
673 1 6.293188 -2.382325 0.448293
674 1 5.826834 -0.621771 2.255793
675 1 5.374520 1.138188 4.063294
676 1 4.965493 2.880143 5.870794
677 1 9.357581 -7.175614 -6.781709
678 1 8.920396 -5.432313 -4.974209
679 1 8.481534 -3.683816 -3.166708
680 1 8.032916 -1.928073 -1.359208
681 1 7.581336 -0.176919 0.448292
682 1 7.147384 1.566925 2.255792
683 1 6.722686 3.315445 4.063293
684 1 6.285203 5.066791 5.870793
685 1 10.675362 -4.985722 -6.781710
686 1 10.230393 -3.235381 -4.974210
687 1 9.784555 -1.484467 -3.166709
688 1 9.344229 0.263432 -1.359209
689 1 8.908700 2.010140 0.448291
690 1 8.471135 3.761723 2.255791
691 1 8.023384 5.520175 4.063292
692 1 7.572277 7.273678 5.870792
693 1 11.983564 -2.791189 -6.781711
694 1 11.541433 -1.042339 -4.974211
695 1 11.102081 0.706163 -3.166710
696 1 10.662147 2.456311 -1.359210
697 1 10.218316 4.209469 0.448290
698 1 9.773268 5.963126 2.255791
699 1 9.333292 7.713641 4.063291
700 1 8.897621 9.462906 5.870791
701 1 13.297192 -0.599795 -6.781712
702 1 12.856085 1.150226 -4.974212
703 1 12.413499 2.901678 -3.166711
704 1 11.970004 4.653723 -1.359211
705 1 11.528374 6.405078 0.448290
706 1 11.089150 8.156203 2.255790
707 1 10.648909 9.909006 4.063290
708 1 10.204314 11.664868 5.870791
709 1 14.608742 1.593719 -6.781713
710 1 14.165968 3.345207 -4.974213
711 1 13.723727 5.096605 -3.166712
712 1 13.282554 6.848019 -1.359212
713 1 12.841260 8.600415 0.448289
714 1 12.398105 10.354462 2.255789
715 1 11.953512 12.109301 4.063290
716 1 11.510025 13.863756 5.870790
717 1 15.919059 3.787595 -6.781714
718 1 15.477094 5.539248 -4.974214
719 1 15.035083 7.291381 -3.166713
720 1 14.592255 9.044449 -1.359213
721 1 14.148547 10.798299 0.448288
722 1 13.704829 12.552398 2.255788
723 1 13.261428 14.306838 4.063289
724 1 12.817034 16.062536 5.870789
725 1 17.229599 5.981602 -6.781715
726 1 16.786878 7.734319 -4.974215
727 1 16.343566 9.487548 -3.166714
728 1 15.899970 11.241152 -1.359213
729 1 15.456291 12.995136 0.448287
730 1 15.012072 14.749824 2.255788
731 1 14.566644 16.505434 4.063288
732 1 14.120379 18.261396 5.870788
733 1 18.538618 8.176438 -6.781716
734 1 18.095292 9.929755 -4.974215
735 1 17.651731 11.683330 -3.166715
736 1 17.207835 13.437297 -1.359214
737 1 16.763402 15.191723 0.448286
738 1 16.318688 16.946300 2.255787
739 1 15.874760 18.700317 4.063287
740 1 15.433073 20.453035 5.870787
741 1 19.847291 10.371137 -6.781717
742 1 19.403824 12.124708 -4.974216
743 1 18.960109 13.878431 -3.166716
744 1 18.516385 15.632137 -1.359215
745 1 18.073309 17.385422 0.448285
746 1 17.631822 19.137807 2.255786
747 1 17.192742 20.889000 4.063286
748 1 16.756474 22.639001 5.870786
749 1 21.156557 12.565088 -6.781718
750 1 20.713564 14.318353 -4.974217
751 1 20.271109 16.071213 -3.166716
752 1 19.829831 17.823376 -1.359216
753 1 19.390343 19.574630 0.448284
754 1 18.953021 21.324942 2.255784
755 1 18.517921 23.074490 4.063285
756 1 18.084747 24.823663 5.870785
757 1 22.468219 14.757172 -6.781719
758 1 22.027171 16.509302 -4.974218
759 1 21.587461 18.260679 -3.166717
760 1 21.149411 20.011279 -1.359217
761 1 20.713112 21.761228 0.448283
762 1 20.278387 23.510802 2.255783
763 1 19.844790 25.260407 4.063283
764 1 19.411700 27.010487 5.870783
765 1 23.784041 16.946767 -6.781720
766 1 23.345529 18.697705 -4.974219
767 1 22.908388 20.448051 -3.166719
768 1 22.472529 22.198011 -1.359219
769 1 22.037668 23.947881 0.448281
770 1 21.603389 25.697988 2.255782
771 1 21.169277 27.448605 4.063282
772 1 20.735074 29.199881 5.870782
773 1 25.103547 19.134697 -6.781721
774 1 24.666884 20.885081 -4.974221
775 1 24.231076 22.635279 -3.166720
776 1 23.795846 24.385545 -1.359220
777 1 23.360887 26.136109 0.448280
778 1 22.925965 27.887130 2.255781
779 1 26.424719 21.322392 -6.781722
780 1 25.988757 23.072933 -4.974222
781 1 25.553101 24.823606 -3.166721
782 1 25.117554 26.574566 -1.359221
783 1 24.681986 28.325917 0.448279
784 1 27.745664 23.510863 -6.781723
785 1 27.309606 25.261922 -4.974223
786 1 26.873566 27.013233 -3.166723
787 1 26.437465 28.764875 -1.359222
788 1 29.065492 25.700395 -6.781725
789 1 28.629039 27.452025 -4.974224
790 1 28.192492 29.203931 -3.166724
791 1 30.384062 27.890881 -6.781726
792 2 0.993814 -25.915351 -6.781704
793 2 0.893848 -24.226552 -4.974204
794 2 -0.292453 -22.114155 -1.359201
795 1 2.447815 -23.718748 -6.781705
796 1 2.045761 -21.968334 -4.974205
797 2 0.807518 -20.477707 -3.166703
798 2 0.909170 -18.630269 -1.359203
799 2 0.892609 -16.801364 0.448297
800 2 -0.285644 -14.640855 4.063299
801 1 3.688536 -21.517542 -6.781706
802 1 3.171087 -19.836907 -4.974206
803 1 2.796240 -18.237670 -3.166705
804 1 2.431374 -16.375671 -1.359204
805 1 2.049588 -14.588671 0.448295
806 2 0.859749 -13.030381 2.255797
807 2 0.891775 -11.177202 4.063297
808 2 0.884943 -9.349989 5.870797
809 1 5.023280 -19.403544 -6.781707
810 1 4.571786 -17.699526 -4.974206
811 1 4.137447 -15.968672 -3.166706
812 1 3.662654 -14.138306 -1.359206
813 1 3.130712 -12.432773 0.448294
814 1 2.772652 -10.815249 2.255795
815 1 2.423765 -8.940279 4.063296
816 1 2.045747 -7.148710 5.870795
817 1 6.332447 -17.229652 -6.781707
818 1 5.856605 -15.482668 -4.974207
819 1 5.397778 -13.736737 -3.166707
820 1 4.985217 -12.004835 -1.359207
821 1 4.544424 -10.290026 0.448294
822 1 4.123178 -8.544978 2.255794
823 1 3.653783 -6.702464 4.063294
824 1 3.119804 -4.990697 5.870795
825 1 7.616043 -15.037043 -6.781708
826 1 7.176467 -13.302866 -4.974208
827 1 6.746195 -11.563877 -3.166707
828 1 6.304615 -9.820105 -1.359207
829 1 5.835983 -8.063938 0.448293
830 1 5.382397 -6.307495 2.255794
831 1 4.972736 -4.568071 4.063294
832 1 4.534868 -2.849009 5.870794
833 1 8.940358 -12.859742 -6.781709
834 1 8.498256 -11.114998 -4.974208
835 1 8.046592 -9.363882 -3.166708
836 1 7.592788 -7.617026 -1.359208
837 1 7.157269 -5.876858 0.448293
838 1 6.731399 -4.131343 2.255793
839 1 6.293188 -2.382325 4.063293
840 1 5.826834 -0.621771 5.870793
841 1 10.247677 -10.668360 -6.781710
842 1 9.799850 -8.920090 -4.974209
843 1 9.357581 -7.175614 -3.166709
844 1 8.920396 -5.432313 -1.359209
845 1 8.481534 -3.683816 0.448292
846 1 8.032916 -1.928073 2.255792
847 1 7.581336 -0.176919 4.063292
848 1 7.147384 1.566925 5.870792
849 1 11.557200 -8.479800 -6.781711
850 1 11.116628 -6.733235 -4.974210
851 1 10.675362 -4.985722 -3.166710
852 1 10.230393 -3.235381 -1.359210
853 1 9.784555 -1.484467 0.448291
854 1 9.344229 0.263432 2.255791
855 1 8.908700 2.010140 4.063291
856 1 8.471135 3.761723 5.870791
857 1 12.871027 -6.290946 -6.781712