#LAMMPS data file
14624 atoms
2 atom types
-125.2250000000 125.2250000000 xlo xhi
-29.8100853000 29.8100853000 ylo yhi
-7.2300000000 7.2300000000 zlo zhi
0.0 0.0 0.0 xy xz yz

Atoms # atomic

1 1 0.669234 28.256808 -6.777737
2 1 0.289484 22.594041 -6.777737
3 1 1.332815 24.756092 -6.777737
4 1 0.980593 26.384761 -4.970237
5 1 0.669234 28.256808 -3.162737
6 1 2.764488 26.868776 -6.777737
7 1 2.360790 28.625631 -4.970237
8 1 4.064113 29.082450 -6.777737
9 1 0.959715 18.919724 -6.777737
10 1 0.654166 20.790421 -4.970237
11 1 0.289484 22.594041 -3.162737
12 1 2.342900 21.154741 -6.777737
13 1 1.882923 23.020172 -4.970237
14 1 1.332815 24.756092 -3.162737
15 1 0.980593 26.384761 -1.355237
16 1 0.669234 28.256808 0.452263
17 1 3.593006 23.387194 -6.777737
18 1 3.185887 25.144284 -4.970237
19 1 2.764488 26.868776 -3.162737
20 1 2.360790 28.625631 -1.355237
21 1 4.945692 25.547125 -6.777737
22 1 4.521345 27.309105 -4.970237
23 1 4.064113 29.082450 -3.162737
24 1 6.254950 27.738231 -6.777737
25 1 5.811671 29.504050 -4.970237
26 2 0.642137 13.298640 -6.777737
27 1 0.289651 15.125824 -4.970237
28 1 1.866039 15.516517 -6.777737
29 1 1.317763 17.285489 -4.970237
30 1 0.959715 18.919724 -3.162737
31 1 0.654166 20.790421 -1.355237
32 1 0.289484 22.594041 0.452263
33 1 3.153374 17.644722 -6.777737
34 1 2.742652 19.389623 -4.970237
35 1 2.342900 21.154741 -3.162737
36 1 1.882923 23.020172 -1.355237
37 1 1.332815 24.756092 0.452263
38 1 0.980593 26.384761 2.259763
39 1 0.669234 28.256808 4.067263
40 1 4.489606 19.813995 -6.777737
41 1 4.040022 21.603714 -4.970237
42 1 3.593006 23.387194 -3.162737
43 1 3.185887 25.144284 -1.355237
44 1 2.764488 26.868776 0.452263
45 1 2.360790 28.625631 2.259763
46 1 5.779083 22.016870 -6.777737
47 1 5.356662 23.784163 -4.970237
48 1 4.945692 25.547125 -3.162737
49 1 4.521345 27.309105 -1.355237
50 1 4.064113 29.082450 0.452263
51 1 7.112551 24.196800 -6.777737
52 1 6.690556 25.965487 -4.970237
53 1 6.254950 27.738231 -3.162737
54 1 5.811671 29.504050 -1.355237
55 1 8.432517 26.388643 -6.777737
56 1 8.000010 28.157273 -4.970237
57 1 9.752390 28.576577 -6.777737
58 2 -0.350335 7.659442 -4.970237
59 2 0.778057 9.349106 -6.777737
60 2 0.819812 11.249688 -4.970237
61 2 0.642137 13.298640 -3.162737
62 1 0.289651 15.125824 -1.355237
63 1 2.583963 11.737175 -6.777737
64 1 2.281843 13.574181 -4.970237
65 1 1.866039 15.516517 -3.162737
66 1 1.317763 17.285489 -1.355237
67 1 0.959715 18.919724 0.452263
68 1 0.654166 20.790421 2.259763
69 1 0.289484 22.594041 4.067263
70 1 3.958914 14.023251 -6.777737
71 1 3.545066 15.846562 -4.970237
72 1 3.153374 17.644722 -3.162737
73 1 2.742652 19.389623 -1.355237
74 1 2.342900 21.154741 0.452263
75 1 1.882923 23.020172 2.259763
76 1 1.332815 24.756092 4.067263
77 1 0.980593 26.384761 5.874763
78 1 5.294163 16.243592 -6.777737
79 1 4.899830 18.028983 -4.970237
80 1 4.489606 19.813995 -3.162737
81 1 4.040022 21.603714 -1.355237
82 1 3.593006 23.387194 0.452263
83 1 3.185887 25.144284 2.259763
84 1 2.764488 26.868776 4.067263
85 1 2.360790 28.625631 5.874763
86 1 6.639370 18.448505 -6.777737
87 1 6.214092 20.235377 -4.970237
88 1 5.779083 22.016870 -3.162737
89 1 5.356662 23.784163 -1.355237
90 1 4.945692 25.547125 0.452263
91 1 4.521345 27.309105 2.259763
92 1 4.064113 29.082450 4.067263
93 1 7.954918 20.656786 -6.777737
94 1 7.531400 22.428804 -4.970237
95 1 7.112551 24.196800 -3.162737
96 1 6.690556 25.965487 -1.355237
97 1 6.254950 27.738231 0.452263
98 1 5.811671 29.504050 2.259763
99 1 9.284222 22.850457 -6.777737
100 1 8.861002 24.618446 -4.970237
101 1 8.432517 26.388643 -3.162737
102 1 8.000010 28.157273 -1.355237
103 1 10.609233 25.045524 -6.777737
104 1 10.180304 26.811932 -4.970237
105 1 9.752390 28.576577 -3.162737
106 1 11.932932 27.237821 -6.777737
107 1 11.506134 28.999787 -4.970237
108 1 13.260192 29.427068 -6.777737
109 2 0.881786 3.723677 -6.777737
110 2 0.854030 5.555813 -4.970237
111 2 -0.350335 7.659442 -1.355237
112 1 2.362893 6.064450 -6.777737
113 1 1.975818 7.854110 -4.970237
114 2 0.778057 9.349106 -3.162737
115 2 0.819812 11.249688 -1.355237
116 2 0.642137 13.298640 0.452263
117 1 0.289651 15.125824 2.259763
118 1 3.569613 8.336259 -6.777737
119 1 3.025884 10.060503 -4.970237
120 1 2.583963 11.737175 -3.162737
121 1 2.281843 13.574181 -1.355237
122 1 1.866039 15.516517 0.452263
123 1 1.317763 17.285489 2.259763
124 1 0.959715 18.919724 4.067263
125 1 0.654166 20.790421 5.874763
126 1 4.835252 10.519645 -6.777737
127 1 4.396583 12.245518 -4.970237
128 1 3.958914 14.023251 -3.162737
129 1 3.545066 15.846562 -1.355237
130 1 3.153374 17.644722 0.452263
131 1 2.742652 19.389623 2.259763
132 1 2.342900 21.154741 4.067263
133 1 1.882923 23.020172 5.874763
134 1 6.156594 12.718935 -6.777737
135 1 5.710230 14.474477 -4.970237
136 1 5.294163 16.243592 -3.162737
137 1 4.899830 18.028983 -1.355237
138 1 4.489606 19.813995 0.452263
139 1 4.040022 21.603714 2.259763
140 1 3.593006 23.387194 4.067263
141 1 3.185887 25.144284 5.874763
142 1 7.479656 14.920605 -6.777737
143 1 7.055550 16.676447 -4.970237
144 1 6.639370 18.448505 -3.162737
145 1 6.214092 20.235377 -1.355237
146 1 5.779083 22.016870 0.452263
147 1 5.356662 23.784163 2.259763
148 1 4.945692 25.547125 4.067263
149 1 4.521345 27.309105 5.874763
150 1 8.814277 17.120330 -6.777737
151 1 8.383768 18.884524 -4.970237
152 1 7.954918 20.656786 -3.162737
153 1 7.531400 22.428804 -1.355237
154 1 7.112551 24.196800 0.452263
155 1 6.690556 25.965487 2.259763
156 1 6.254950 27.738231 4.067263
157 1 5.811671 29.504050 5.874763
158 1 10.137261 19.323368 -6.777737
159 1 9.707978 21.085267 -4.970237
160 1 9.284222 22.850457 -3.162737
161 1 8.861002 24.618446 -1.355237
162 1 8.432517 26.388643 0.452263
163 1 8.000010 28.157273 2.259763
164 1 11.464970 21.519921 -6.777737
165 1 11.037078 23.280676 -4.970237
166 1 10.609233 25.045524 -3.162737
167 1 10.180304 26.811932 -1.355237
168 1 9.752390 28.576577 0.452263
169 1 12.791519 23.715485 -6.777737
170 1 12.361432 25.475898 -4.970237
171 1 11.932932 27.237821 -3.162737
172 1 11.506134 28.999787 -1.355237
173 1 14.117101 25.909015 -6.777737
174 1 13.688000 27.667396 -4.970237
175 1 13.260192 29.427068 -3.162737
176 1 15.444434 28.100093 -6.777737
177 2 0.887911 -1.902405 -6.777737
178 2 -0.315359 0.206908 -3.162737
179 1 2.015864 0.386726 -6.777737
180 2 0.775229 1.864621 -4.970237
181 2 0.881786 3.723677 -3.162737
182 2 0.854030 5.555813 -1.355237
183 2 -0.350335 7.659442 2.259763
184 1 3.129615 2.545488 -6.777737
185 1 2.767430 4.165497 -4.970237
186 1 2.362893 6.064450 -3.162737
187 1 1.975818 7.854110 -1.355237
188 2 0.778057 9.349106 0.452263
189 2 0.819812 11.249688 2.259763
190 2 0.642137 13.298640 4.067263
191 1 0.289651 15.125824 5.874763
192 1 4.505197 4.736591 -6.777737
193 1 4.061002 6.485540 -4.970237
194 1 3.569613 8.336259 -3.162737
195 1 3.025884 10.060503 -1.355237
196 1 2.583963 11.737175 0.452263
197 1 2.281843 13.574181 2.259763
198 1 1.866039 15.516517 4.067263
199 1 1.317763 17.285489 5.874763
200 1 5.761677 6.995310 -6.777737
201 1 5.285504 8.761015 -4.970237
202 1 4.835252 10.519645 -3.162737
203 1 4.396583 12.245518 -1.355237
204 1 3.958914 14.023251 0.452263
205 1 3.545066 15.846562 2.259763
206 1 3.153374 17.644722 4.067263
207 1 2.742652 19.389623 5.874763
208 1 7.045650 9.214388 -6.777737
209 1 6.602730 10.964008 -4.970237
210 1 6.156594 12.718935 -3.162737
211 1 5.710230 14.474477 -1.355237
212 1 5.294163 16.243592 0.452263
213 1 4.899830 18.028983 2.259763
214 1 4.489606 19.813995 4.067263
215 1 4.040022 21.603714 5.874763
216 1 8.361937 11.417929 -6.777737
217 1 7.916795 13.169427 -4.970237
218 1 7.479656 14.920605 -3.162737
219 1 7.055550 16.676447 -1.355237
220 1 6.639370 18.448505 0.452263
221 1 6.214092 20.235377 2.259763
222 1 5.779083 22.016870 4.067263
223 1 5.356662 23.784163 5.874763
224 1 9.681608 13.616721 -6.777737
225 1 9.245789 15.365952 -4.970237
226 1 8.814277 17.120330 -3.162737
227 1 8.383768 18.884524 -1.355237
228 1 7.954918 20.656786 0.452263
229 1 7.531400 22.428804 2.259763
230 1 7.112551 24.196800 4.067263
231 1 6.690556 25.965487 5.874763
232 1 11.008123 15.812656 -6.777737
233 1 10.571641 17.565609 -4.970237
234 1 10.137261 19.323368 -3.162737
235 1 9.707978 21.085267 -1.355237
236 1 9.284222 22.850457 0.452263
237 1 8.861002 24.618446 2.259763
238 1 8.432517 26.388643 4.067263
239 1 8.000010 28.157273 5.874763
240 1 12.330918 18.009885 -6.777737
241 1 11.895850 19.763325 -4.970237
242 1 11.464970 21.519921 -3.162737
243 1 11.037078 23.280676 -1.355237
244 1 10.609233 25.045524 0.452263
245 1 10.180304 26.811932 2.259763
246 1 9.752390 28.576577 4.067263
247 1 13.655982 20.204398 -6.777737
248 1 13.222850 21.958189 -4.970237
249 1 12.791519 23.715485 -3.162737
250 1 12.361432 25.475898 -1.355237
251 1 11.932932 27.237821 0.452263
252 1 11.506134 28.999787 2.259763
253 1 14.981429 22.397989 -6.777737
254 1 14.548274 24.152375 -4.970237
255 1 14.117101 25.909015 -3.162737
256 1 13.688000 27.667396 -1.355237
257 1 13.260192 29.427068 0.452263
258 1 16.306798 24.590390 -6.777737
259 1 15.874720 26.344354 -4.970237
260 1 15.444434 28.100093 -3.162737
261 1 17.633362 26.781225 -6.777737
262 1 17.202003 28.534896 -4.970237
263 1 18.960538 28.971045 -6.777737
264 2 -0.302137 -7.246682 -4.970237
265 2 0.733759 -5.584079 -6.777737
266 2 0.924345 -3.737270 -4.970237
267 2 0.887911 -1.902405 -3.162737
268 2 -0.315359 0.206908 0.452263
269 1 2.826132 -3.256738 -6.777737
270 1 2.407264 -1.394755 -4.970237
271 1 2.015864 0.386726 -3.162737
272 2 0.775229 1.864621 -1.355237
273 2 0.881786 3.723677 0.452263
274 2 0.854030 5.555813 2.259763
275 2 -0.350335 7.659442 5.874763
276 1 4.123434 -0.958791 -6.777737
277 1 3.641052 0.854460 -4.970237
278 1 3.129615 2.545488 -3.162737
279 1 2.767430 4.165497 -1.355237
280 1 2.362893 6.064450 0.452263
281 1 1.975818 7.854110 2.259763
282 2 0.778057 9.349106 4.067263
283 2 0.819812 11.249688 5.874763
284 1 5.388522 1.281817 -6.777737
285 1 4.971402 3.009323 -4.970237
286 1 4.505197 4.736591 -3.162737
287 1 4.061002 6.485540 -1.355237
288 1 3.569613 8.336259 0.452263
289 1 3.025884 10.060503 2.259763
290 1 2.583963 11.737175 4.067263
291 1 2.281843 13.574181 5.874763
292 1 6.714617 3.484686 -6.777737
293 1 6.251569 5.232235 -4.970237
294 1 5.761677 6.995310 -3.162737
295 1 5.285504 8.761015 -1.355237
296 1 4.835252 10.519645 0.452263
297 1 4.396583 12.245518 2.259763
298 1 3.958914 14.023251 4.067263
299 1 3.545066 15.846562 5.874763
300 1 7.982883 5.713039 -6.777737
301 1 7.507103 7.465250 -4.970237
302 1 7.045650 9.214388 -3.162737
303 1 6.602730 10.964008 -1.355237
304 1 6.156594 12.718935 0.452263
305 1 5.710230 14.474477 2.259763
306 1 5.294163 16.243592 4.067263
307 1 4.899830 18.028983 5.874763
308 1 9.264848 7.924470 -6.777737
309 1 8.810436 9.669588 -4.970237
310 1 8.361937 11.417929 -3.162737
311 1 7.916795 13.169427 -1.355237
312 1 7.479656 14.920605 0.452263
313 1 7.055550 16.676447 2.259763
314 1 6.639370 18.448505 4.067263
315 1 6.214092 20.235377 5.874763
316 1 10.572574 10.123378 -6.777737
317 1 10.124170 11.869375 -4.970237
318 1 9.681608 13.616721 -3.162737
319 1 9.245789 15.365952 -1.355237
320 1 8.814277 17.120330 0.452263
321 1 8.383768 18.884524 2.259763
322 1 7.954918 20.656786 4.067263
323 1 7.531400 22.428804 5.874763
324 1 11.888248 12.318308 -6.777737
325 1 11.446346 14.064105 -4.970237
326 1 11.008123 15.812656 -3.162737
327 1 10.571641 17.565609 -1.355237
328 1 10.137261 19.323368 0.452263
329 1 9.707978 21.085267 2.259763
330 1 9.284222 22.850457 4.067263
331 1 8.861002 24.618446 5.874763
332 1 13.209427 14.511214 -6.777737
333 1 12.769165 16.259171 -4.970237
334 1 12.330918 18.009885 -3.162737
335 1 11.895850 19.763325 -1.355237
336 1 11.464970 21.519921 0.452263
337 1 11.037078 23.280676 2.259763
338 1 10.609233 25.045524 4.067263
339 1 10.180304 26.811932 5.874763
340 1 14.530435 16.704428 -6.777737
341 1 14.091789 18.453402 -4.970237
342 1 13.655982 20.204398 -3.162737
343 1 13.222850 21.958189 -1.355237
344 1 12.791519 23.715485 0.452263
345 1 12.361432 25.475898 2.259763
346 1 11.932932 27.237821 4.067263
347 1 11.506134 28.999787 5.874763
348 1 15.853069 18.896408 -6.777737
349 1 15.416320 20.646092 -4.970237
350 1 14.981429 22.397989 -3.162737
351 1 14.548274 24.152375 -1.355237
352 1 14.117101 25.909015 0.452263
353 1 13.688000 27.667396 2.259763
354 1 13.260192 29.427068 4.067263
355 1 17.176705 21.087733 -6.777737
356 1 16.740858 22.838200 -4.970237
357 1 16.306798 24.590390 -3.162737
358 1 15.874720 26.344354 -1.355237
359 1 15.444434 28.100093 0.452263
360 1 18.500898 23.278382 -6.777737
361 1 18.066278 25.029090 -4.970237
362 1 17.633362 26.781225 -3.162737
363 1 17.202003 28.534896 -1.355237
364 1 19.826171 25.468129 -6.777737
365 1 19.392624 27.218991 -4.970237
366 1 18.960538 28.971045 -3.162737
367 1 21.152251 27.657230 -6.777737
368 1 20.719690 29.408108 -4.970237
369 2 1.024587 -10.984376 -6.777737
370 2 0.918810 -9.298920 -4.970237
371 2 -0.302137 -7.246682 -1.355237
372 1 2.446578 -8.720911 -6.777737
373 1 2.033527 -6.967444 -4.970237
374 2 0.733759 -5.584079 -3.162737
375 2 0.924345 -3.737270 -1.355237
376 2 0.887911 -1.902405 0.452263
377 2 -0.315359 0.206908 4.067263
378 1 3.698016 -6.513982 -6.777737
379 1 3.211612 -4.848750 -4.970237
380 1 2.826132 -3.256738 -3.162737
381 1 2.407264 -1.394755 -1.355237
382 1 2.015864 0.386726 0.452263
383 2 0.775229 1.864621 2.259763
384 2 0.881786 3.723677 4.067263
385 2 0.854030 5.555813 5.874763
386 1 5.051463 -4.386993 -6.777737
387 1 4.579370 -2.680382 -4.970237
388 1 4.123434 -0.958791 -3.162737
389 1 3.641052 0.854460 -1.355237
390 1 3.129615 2.545488 0.452263
391 1 2.767430 4.165497 2.259763
392 1 2.362893 6.064450 4.067263
393 1 1.975818 7.854110 5.874763
394 1 6.336053 -2.188832 -6.777737
395 1 5.850565 -0.451531 -4.970237
396 1 5.388522 1.281817 -3.162737
397 1 4.971402 3.009323 -1.355237
398 1 4.505197 4.736591 0.452263
399 1 4.061002 6.485540 2.259763
400 1 3.569613 8.336259 4.067263
401 1 3.025884 10.060503 5.874763
402 1 7.613153 0.015652 -6.777737
403 1 7.163813 1.744311 -4.970237
404 1 6.714617 3.484686 -3.162737
405 1 6.251569 5.232235 -1.355237
406 1 5.761677 6.995310 0.452263
407 1 5.285504 8.761015 2.259763
408 1 4.835252 10.519645 4.067263
409 1 4.396583 12.245518 5.874763
410 1 8.917919 2.214067 -6.777737
411 1 8.455835 3.959240 -4.970237
412 1 7.982883 5.713039 -3.162737
413 1 7.507103 7.465250 -1.355237
414 1 7.045650 9.214388 0.452263
415 1 6.602730 10.964008 2.259763
416 1 6.156594 12.718935 4.067263
417 1 5.710230 14.474477 5.874763
418 1 10.197122 4.427399 -6.777737
419 1 9.728423 6.177057 -4.970237
420 1 9.264848 7.924470 -3.162737
421 1 8.810436 9.669588 -1.355237
422 1 8.361937 11.417929 0.452263
423 1 7.916795 13.169427 2.259763
424 1 7.479656 14.920605 4.067263
425 1 7.055550 16.676447 5.874763
426 1 11.482204 6.632815 -6.777737
427 1 11.025052 8.378327 -4.970237
428 1 10.572574 10.123378 -3.162737
429 1 10.124170 11.869375 -1.355237
430 1 9.681608 13.616721 0.452263
431 1 9.245789 15.365952 2.259763
432 1 8.814277 17.120330 4.067263
433 1 8.383768 18.884524 5.874763
434 1 12.785101 8.828658 -6.777737
435 1 12.334731 10.573501 -4.970237
436 1 11.888248 12.318308 -3.162737
437 1 11.446346 14.064105 -1.355237
438 1 11.008123 15.812656 0.452263
439 1 10.571641 17.565609 2.259763
440 1 10.137261 19.323368 4.067263
441 1 9.707978 21.085267 5.874763
442 1 14.096938 11.020611 -6.777737
443 1 13.651789 12.765449 -4.970237
444 1 13.209427 14.511214 -3.162737
445 1 12.769165 16.259171 -1.355237
446 1 12.330918 18.009885 0.452263
447 1 11.895850 19.763325 2.259763
448 1 11.464970 21.519921 4.067263
449 1 11.037078 23.280676 5.874763
450 1 15.414004 13.210962 -6.777737
451 1 14.971349 14.957074 -4.970237
452 1 14.530435 16.704428 -3.162737
453 1 14.091789 18.453402 -1.355237
454 1 13.655982 20.204398 0.452263
455 1 13.222850 21.958189 2.259763
456 1 12.791519 23.715485 4.067263
457 1 12.361432 25.475898 5.874763
458 1 16.732700 15.401258 -6.777737
459 1 16.291900 17.148328 -4.970237
460 1 15.853069 18.896408 -3.162737
461 1 15.416320 20.646092 -1.355237
462 1 14.981429 22.397989 0.452263
463 1 14.548274 24.152375 2.259763
464 1 14.117101 25.909015 4.067263
465 1 13.688000 27.667396 5.874763
466 1 18.053110 17.591010 -6.777737
467 1 17.614137 19.338802 -4.970237
468 1 17.176705 21.087733 -3.162737
469 1 16.740858 22.838200 -1.355237
470 1 16.306798 24.590390 0.452263
471 1 15.874720 26.344354 2.259763
472 1 15.444434 28.100093 4.067263
473 1 19.374862 19.780393 -6.777737
474 1 18.937161 21.528895 -4.970237
475 1 18.500898 23.278382 -3.162737
476 1 18.066278 25.029090 -1.355237
477 1 17.633362 26.781225 0.452263
478 1 17.202003 28.534896 2.259763
479 1 20.697583 21.969428 -6.777737
480 1 20.261175 23.718350 -4.970237
481 1 19.826171 25.468129 -3.162737
482 1 19.392624 27.218991 -1.355237
483 1 18.960538 28.971045 0.452263
484 1 22.021406 24.158001 -6.777737
485 1 21.586187 25.907236 -4.970237
486 1 21.152251 27.657230 -3.162737
487 1 20.719690 29.408108 -1.355237
488 1 23.346130 26.346253 -6.777737
489 1 22.911971 28.095724 -4.970237
490 1 24.671505 28.534374 -6.777737
491 1 0.713088 -16.477020 -6.777737
492 1 0.350135 -14.674258 -4.970237
493 1 1.959087 -14.270964 -6.777737
494 1 1.427149 -12.544367 -4.970237
495 2 1.024587 -10.984376 -3.162737
496 2 0.918810 -9.298920 -1.355237
497 2 -0.302137 -7.246682 2.259763
498 1 3.298397 -12.184047 -6.777737
499 1 2.961808 -10.516106 -4.970237
500 1 2.446578 -8.720911 -3.162737
501 1 2.033527 -6.967444 -1.355237
502 2 0.733759 -5.584079 0.452263
503 2 0.924345 -3.737270 2.259763
504 2 0.887911 -1.902405 4.067263
505 2 -0.315359 0.206908 -6.777737
506 1 4.655186 -10.023085 -6.777737
507 1 4.187501 -8.282245 -4.970237
508 1 3.698016 -6.513982 -3.162737
509 1 3.211612 -4.848750 -1.355237
510 1 2.826132 -3.256738 0.452263
511 1 2.407264 -1.394755 2.259763
512 1 2.015864 0.386726 4.067263
513 2 0.775229 1.864621 5.874763
514 1 5.920619 -7.825673 -6.777737
515 1 5.471312 -6.096819 -4.970237
516 1 5.051463 -4.386993 -3.162737
517 1 4.579370 -2.680382 -1.355237
518 1 4.123434 -0.958791 0.452263
519 1 3.641052 0.854460 2.259763
520 1 3.129615 2.545488 4.067263
521 1 2.767430 4.165497 5.874763
522 1 7.244784 -5.658587 -6.777737
523 1 6.799617 -3.922120 -4.970237
524 1 6.336053 -2.188832 -3.162737
525 1 5.850565 -0.451531 -1.355237
526 1 5.388522 1.281817 0.452263
527 1 4.971402 3.009323 2.259763
528 1 4.505197 4.736591 4.067263
529 1 4.061002 6.485540 5.874763
530 1 8.542651 -3.464866 -6.777737
531 1 8.078507 -1.719398 -4.970237
532 1 7.613153 0.015652 -3.162737
533 1 7.163813 1.744311 -1.355237
534 1 6.714617 3.484686 0.452263
535 1 6.251569 5.232235 2.259763
536 1 5.761677 6.995310 4.067263
537 1 5.285504 8.761015 5.874763
538 1 9.828019 -1.266252 -6.777737
539 1 9.373616 0.474526 -4.970237
540 1 8.917919 2.214067 -3.162737
541 1 8.455835 3.959240 -1.355237
542 1 7.982883 5.713039 0.452263
543 1 7.507103 7.465250 2.259763
544 1 7.045650 9.214388 4.067263
545 1 6.602730 10.964008 5.874763
546 1 11.123137 0.930428 -6.777737
547 1 10.663564 2.678053 -4.970237
548 1 10.197122 4.427399 -3.162737
549 1 9.728423 6.177057 -1.355237
550 1 9.264848 7.924470 0.452263
551 1 8.810436 9.669588 2.259763
552 1 8.361937 11.417929 4.067263
553 1 7.916795 13.169427 5.874763
554 1 12.407398 3.134685 -6.777737
555 1 11.944154 4.885014 -4.970237
556 1 11.482204 6.632815 -3.162737
557 1 11.025052 8.378327 -1.355237
558 1 10.572574 10.123378 0.452263
559 1 10.124170 11.869375 2.259763
560 1 9.681608 13.616721 4.067263
561 1 9.245789 15.365952 5.874763
562 1 13.695205 5.335201 -6.777737
563 1 13.238681 7.082955 -4.970237
564 1 12.785101 8.828658 -3.162737
565 1 12.334731 10.573501 -1.355237
566 1 11.888248 12.318308 0.452263
567 1 11.446346 14.064105 2.259763
568 1 11.008123 15.812656 4.067263
569 1 10.571641 17.565609 5.874763
570 1 14.995640 7.529037 -6.777737
571 1 14.545038 9.275452 -4.970237
572 1 14.096938 11.020611 -3.162737
573 1 13.651789 12.765449 -1.355237
574 1 13.209427 14.511214 0.452263
575 1 12.769165 16.259171 2.259763
576 1 12.330918 18.009885 4.067263
577 1 11.895850 19.763325 5.874763
578 1 16.304615 9.719360 -6.777737
579 1 15.858375 11.465378 -4.970237
580 1 15.414004 13.210962 -3.162737
581 1 14.971349 14.957074 -1.355237
582 1 14.530435 16.704428 0.452263
583 1 14.091789 18.453402 2.259763
584 1 13.655982 20.204398 4.067263
585 1 13.222850 21.958189 5.874763
586 1 17.618720 11.908211 -6.777737
587 1 17.175080 13.654719 -4.970237
588 1 16.732700 15.401258 -3.162737
589 1 16.291900 17.148328 -1.355237
590 1 15.853069 18.896408 0.452263
591 1 15.416320 20.646092 2.259763
592 1 14.981429 22.397989 4.067263
593 1 14.548274 24.152375 5.874763
594 1 18.935337 14.096768 -6.777737
595 1 18.493575 15.843833 -4.970237
596 1 18.053110 17.591010 -3.162737
597 1 17.614137 19.338802 -1.355237
598 1 17.176705 21.087733 0.452263
599 1 16.740858 22.838200 2.259763
600 1 16.306798 24.590390 4.067263
601 1 15.874720 26.344354 5.874763
602 1 20.253881 16.285026 -6.777737
603 1 19.813812 18.032568 -4.970237
604 1 19.374862 19.780393 -3.162737
605 1 18.937161 21.528895 -1.355237
606 1 18.500898 23.278382 0.452263
607 1 18.066278 25.029090 2.259763
608 1 17.633362 26.781225 4.067263
609 1 17.202003 28.534896 5.874763
610 1 21.573974 18.473074 -6.777737
611 1 21.135248 20.221096 -4.970237
612 1 20.697583 21.969428 -3.162737
613 1 20.261175 23.718350 -1.355237
614 1 19.826171 25.468129 0.452263
615 1 19.392624 27.218991 2.259763
616 1 18.960538 28.971045 4.067263
617 1 22.895276 20.660953 -6.777737
618 1 22.457811 22.409323 -4.970237
619 1 22.021406 24.158001 -3.162737
620 1 21.586187 25.907236 -1.355237
621 1 21.152251 27.657230 0.452263
622 1 20.719690 29.408108 2.259763
623 1 24.217720 22.848629 -6.777737
624 1 23.781419 24.597284 -4.970237
625 1 23.346130 26.346253 -3.162737
626 1 22.911971 28.095724 -1.355237
627 1 25.541096 25.036207 -6.777737
628 1 25.105819 26.785130 -4.970237
629 1 24.671505 28.534374 -3.162737
630 1 26.865086 27.223884 -6.777737
631 1 26.430613 28.973144 -4.970237
632 1 28.189118 29.412027 -6.777737
633 1 0.319822 -22.113277 -6.777737
634 1 1.369930 -19.957707 -6.777737
635 1 1.014896 -18.336660 -4.970237
636 1 0.713088 -16.477020 -3.162737
637 1 0.350135 -14.674258 -1.355237
638 1 2.811873 -17.858910 -6.777737
639 1 2.410801 -16.113639 -4.970237
640 1 1.959087 -14.270964 -3.162737
641 1 1.427149 -12.544367 -1.355237
642 2 1.024587 -10.984376 0.452263
643 2 0.918810 -9.298920 2.259763
644 2 -0.302137 -7.246682 5.874763
645 1 4.129377 -15.663456 -6.777737
646 1 3.691801 -13.907256 -4.970237
647 1 3.298397 -12.184047 -3.162737
648 1 2.961808 -10.516106 -1.355237
649 1 2.446578 -8.720911 0.452263
650 1 2.033527 -6.967444 2.259763
651 2 0.733759 -5.584079 4.067263
652 2 0.924345 -3.737270 5.874763
653 1 5.481408 -13.511643 -6.777737
654 1 5.098830 -11.783447 -4.970237
655 1 4.655186 -10.023085 -3.162737
656 1 4.187501 -8.282245 -1.355237
657 1 3.698016 -6.513982 0.452263
658 1 3.211612 -4.848750 2.259763
659 1 2.826132 -3.256738 4.067263
660 1 2.407264 -1.394755 5.874763
661 1 6.831456 -11.338060 -6.777737
662 1 6.384301 -9.581449 -4.970237
663 1 5.920619 -7.825673 -3.162737
664 1 5.471312 -6.096819 -1.355237
665 1 5.051463 -4.386993 0.452263
666 1 4.579370 -2.680382 2.259763
667 1 4.123434 -0.958791 4.067263
668 1 3.641052 0.854460 5.874763
669 1 8.122732 -9.141569 -6.777737
670 1 7.679023 -7.395069 -4.970237
671 1 7.244784 -5.658587 -3.162737
672 1 6.799617 -3.922120 -1.355237
673 1 6.336053 -2.188832 0.452263
674 1 5.850565 -0.451531 2.259763
675 1 5.388522 1.281817 4.067263
676 1 4.971402 3.009323 5.874763
677 1 9.435089 -6.958884 -6.777737
678 1 8.994232 -5.211906 -4.970237
679 1 8.542651 -3.464866 -3.162737
680 1 8.078507 -1.719398 -1.355237
681 1 7.613153 0.015652 0.452263
682 1 7.163813 1.744311 2.259763
683 1 6.714617 3.484686 4.067263
684 1 6.251569 5.232235 5.874763
685 1 10.737061 -4.765431 -6.777737
686 1 10.284328 -3.013500 -4.970237
687 1 9.828019 -1.266252 -3.162737
688 1 9.373616 0.474526 -1.355237
689 1 8.917919 2.214067 0.452263
690 1 8.455835 3.959240 2.259763
691 1 7.982883 5.713039 4.067263
692 1 7.507103 7.465250 5.874763
693 1 12.028788 -2.567471 -6.777737
694 1 11.577134 -0.817332 -4.970237
695 1 11.123137 0.930428 -3.162737
696 1 10.663564 2.678053 -1.355237
697 1 10.197122 4.427399 0.452263
698 1 9.728423 6.177057 2.259763
699 1 9.264848 7.924470 4.067263
700 1 8.810436 9.669588 5.874763
701 1 13.322516 -0.369814 -6.777737
702 1 12.867493 1.382775 -4.970237
703 1 12.407398 3.134685 -3.162737
704 1 11.944154 4.885014 -1.355237
705 1 11.482204 6.632815 0.452263
706 1 11.025052 8.378327 2.259763
707 1 10.572574 10.123378 4.067263
708 1 10.124170 11.869375 5.874763
709 1 14.611135 1.831082 -6.777737
710 1 14.153498 3.584483 -4.970237
711 1 13.695205 5.335201 -3.162737
712 1 13.238681 7.082955 -1.355237
713 1 12.785101 8.828658 0.452263
714 1 12.334731 10.573501 2.259763
715 1 11.888248 12.318308 4.067263
716 1 11.446346 14.064105 5.874763
717 1 15.902140 4.029428 -6.777737
718 1 15.448205 5.780561 -4.970237
719 1 14.995640 7.529037 -3.162737
720 1 14.545038 9.275452 -1.355237
721 1 14.096938 11.020611 0.452263
722 1 13.651789 12.765449 2.259763
723 1 13.209427 14.511214 4.067263
724 1 12.769165 16.259171 5.874763
725 1 17.202085 6.222745 -6.777737
726 1 16.752628 7.972026 -4.970237
727 1 16.304615 9.719360 -3.162737
728 1 15.858375 11.465378 -1.355237
729 1 15.414004 13.210962 0.452263
730 1 14.971349 14.957074 2.259763
731 1 14.530435 16.704428 4.067263
732 1 14.091789 18.453402 5.874763
733 1 18.509461 8.412787 -6.777737
734 1 18.063522 10.161112 -4.970237
735 1 17.618720 11.908211 -3.162737
736 1 17.175080 13.654719 -1.355237
737 1 16.732700 15.401258 0.452263
738 1 16.291900 17.148328 2.259763
739 1 15.853069 18.896408 4.067263
740 1 15.416320 20.646092 5.874763
741 1 19.821695 10.601252 -6.777737
742 1 19.378111 12.349378 -4.970237
743 1 18.935337 14.096768 -3.162737
744 1 18.493575 15.843833 -1.355237
745 1 18.053110 17.591010 0.452263
746 1 17.614137 19.338802 2.259763
747 1 17.176705 21.087733 4.067263
748 1 16.740858 22.838200 5.874763
749 1 21.136783 12.789155 -6.777737
750 1 20.694932 14.537345 -4.970237
751 1 20.253881 16.285026 -3.162737
752 1 19.813812 18.032568 -1.355237
753 1 19.374862 19.780393 0.452263
754 1 18.937161 21.528895 2.259763
755 1 18.500898 23.278382 4.067263
756 1 18.066278 25.029090 5.874763
757 1 22.453936 14.976741 -6.777737
758 1 22.013584 16.725060 -4.970237
759 1 21.573974 18.473074 -3.162737
760 1 21.135248 20.221096 -1.355237
761 1 20.697583 21.969428 0.452263
762 1 20.261175 23.718350 2.259763
763 1 19.826171 25.468129 4.067263
764 1 19.392624 27.218991 5.874763
765 1 23.772733 17.164134 -6.777737
766 1 23.333639 18.912638 -4.970237
767 1 22.895276 20.660953 -3.162737
768 1 22.457811 22.409323 -1.355237
769 1 22.021406 24.158001 0.452263
770 1 21.586187 25.907236 2.259763
771 1 21.152251 27.657230 4.067263
772 1 20.719690 29.408108 5.874763
773 1 25.092847 19.351409 -6.777737
774 1 24.654908 21.100075 -4.970237
775 1 24.217720 22.848629 -3.162737
776 1 23.781419 24.597284 -1.355237
777 1 23.346130 26.346253 0.452263
778 1 22.911971 28.095724 2.259763
779 1 26.414111 21.538596 -6.777737
780 1 25.977232 23.287424 -4.970237
781 1 25.541096 25.036207 -3.162737
782 1 25.105819 26.785130 -1.355237
783 1 24.671505 28.534374 0.452263
784 1 27.736293 23.725808 -6.777737
785 1 27.300335 25.474831 -4.970237
786 1 26.865086 27.223884 -3.162737
787 1 26.430613 28.973144 -1.355237
788 1 29.059047 25.913241 -6.777737
789 1 28.623790 27.662561 -4.970237
790 1 28.189118 29.412027 -3.162737
791 1 30.381832 28.101215 -6.777737
792 1 0.997681 -25.780070 -6.777737
793 1 0.686214 -23.911831 -4.970237
794 1 0.319822 -22.113277 -3.162737
795 1 2.379897 -23.542140 -6.777737
796 1 1.918418 -21.686890 -4.970237
797 1 1.369930 -19.957707 -3.162737
798 1 1.014896 -18.336660 -1.355237
799 1 0.713088 -16.477020 0.452263
800 1 0.350135 -14.674258 2.259763
801 1 3.636888 -21.316056 -6.777737
802 1 3.229935 -19.570711 -4.970237
803 1 2.811873 -17.858910 -3.162737
804 1 2.410801 -16.113639 -1.355237
805 1 1.959087 -14.270964 0.452263
806 1 1.427149 -12.544367 2.259763
807 2 1.024587 -10.984376 4.067263
808 2 0.918810 -9.298920 5.874763
809 1 5.001352 -19.167354 -6.777737
810 1 4.580187 -17.420040 -4.970237
811 1 4.129377 -15.663456 -3.162737
812 1 3.691801 -13.907256 -1.355237
813 1 3.298397 -12.184047 0.452263
814 1 2.961808 -10.516106 2.259763
815 1 2.446578 -8.720911 4.067263
816 1 2.033527 -6.967444 5.874763
817 1 6.328033 -16.991731 -6.777737
818 1 5.893920 -15.244289 -4.970237
819 1 5.481408 -13.511643 -3.162737
820 1 5.098830 -11.783447 -1.355237
821 1 4.655186 -10.023085 0.452263
822 1 4.187501 -8.282245 2.259763
823 1 3.698016 -6.513982 4.067263
824 1 3.211612 -4.848750 5.874763
825 1 7.668025 -14.828288 -6.777737
826 1 7.257751 -13.089522 -4.970237
827 1 6.831456 -11.338060 -3.162737
828 1 6.384301 -9.581449 -1.355237
829 1 5.920619 -7.825673 0.452263
830 1 5.471312 -6.096819 2.259763
831 1 5.051463 -4.386993 4.067263
832 1 4.579370 -2.680382 5.874763
833 1 9.006541 -12.652256 -6.777737
834 1 8.569024 -10.897411 -4.970237
835 1 8.122732 -9.141569 -3.162737
836 1 7.679023 -7.395069 -1.355237
837 1 7.244784 -5.658587 0.452263
838 1 6.799617 -3.922120 2.259763
839 1 6.336053 -2.188832 4.067263
840 1 5.850565 -0.451531 5.874763
841 1 10.312013 -10.459417 -6.777737
842 1 9.872223 -8.707040 -4.970237
843 1 9.435089 -6.958884 -3.162737
844 1 8.994232 -5.211906 -1.355237
845 1 8.542651 -3.464866 0.452263
846 1 8.078507 -1.719398 2.259763
847 1 7.613153 0.015652 4.067263
848 1 7.163813 1.744311 5.874763
849 1 11.621823 -8.270435 -6.777737
850 1 11.182373 -6.518092 -4.970237
851 1 10.737061 -4.765431 -3.162737
852 1 10.284328 -3.013500 -1.355237
853 1 9.828019 -1.266252 0.452263
854 1 9.373616 0.474526 2.259763
855 1 8.917919 2.214067 4.067263
856 1 8.455835 3.959240 5.874763
857 1 12.925823 -6.076170 -6.777737