# LAMMPS data file Sigma = 17, inclination = 0.000000
#LAMMPS data file
14624 atoms
2 atom types
-100.1000000000 100.1000000000 xlo xhi
-29.8100853000 29.8100853000 ylo yhi
-7.2300000000 7.2300000000 zlo zhi
0.0 0.0 0.0 xy xz yz

Atoms # atomic

1 1 0.4383823920 28.0447822385 -5.4225000000
2 2 0.0000005978 22.7960069471 -5.4225000000
3 1 1.3151487703 24.4352074495 -5.4225000000
4 1 0.8767655812 26.2648501160 -3.6150000000
5 1 0.4383823920 28.0447822385 -1.8075000000
6 1 2.6302981385 26.6562203569 -5.4225000000
7 1 2.1919149493 28.4445261244 -3.6150000000
8 1 3.9454475066 28.8579676632 -5.4225000000
9 2 1.3151499660 20.6625395006 -5.4225000000
10 2 0.8767667768 18.8779403730 -3.6150000000
11 2 0.0000005978 22.7960069471 -1.8075000000
12 1 2.1919151486 20.7160892354 -5.4225000000
13 1 1.7535319595 22.5368027667 -3.6150000000
14 1 1.3151487703 24.4352074495 -1.8075000000
15 1 0.8767655812 26.2648501160 0.0000000000
16 1 0.4383823920 28.0447822385 1.8075000000
17 1 3.5070645167 23.0199447488 -5.4225000000
18 1 3.0686813276 24.8449427331 -3.6150000000
19 1 2.6302981385 26.6562203569 -1.8075000000
20 1 2.1919149493 28.4445261244 0.0000000000
21 1 4.8222138849 25.2771708070 -5.4225000000
22 1 4.3838306958 27.0726671292 -3.6150000000
23 1 3.9454475066 28.8579676632 -1.8075000000
24 1 6.1373632530 27.5005673174 -5.4225000000
25 1 5.6989800639 29.2811197759 -3.6150000000
26 2 0.8767665776 11.4115972639 -5.4225000000
27 2 0.0000003986 15.3434671726 -3.6150000000
28 1 1.7535321587 14.9416464420 -5.4225000000
29 2 0.4383835877 17.1076840353 -5.4225000000
30 2 1.3151499660 20.6625395006 -1.8075000000
31 2 0.8767667768 18.8779403730 0.0000000000
32 2 0.0000005978 22.7960069471 1.8075000000
33 1 3.0686815269 17.1753103742 -5.4225000000
34 1 2.6302983377 18.9391046127 -3.6150000000
35 1 2.1919151486 20.7160892354 -1.8075000000
36 1 1.7535319595 22.5368027667 0.0000000000
37 1 1.3151487703 24.4352074495 1.8075000000
38 1 0.8767655812 26.2648501160 3.6150000000
39 1 0.4383823920 28.0447822385 5.4225000000
40 1 4.3838308950 19.4257758024 -5.4225000000
41 1 3.9454477059 21.2115509133 -3.6150000000
42 1 3.5070645167 23.0199447488 -1.8075000000
43 1 3.0686813276 24.8449427331 0.0000000000
44 1 2.6302981385 26.6562203569 1.8075000000
45 1 2.1919149493 28.4445261244 3.6150000000
46 1 5.6989802632 21.6830110844 -5.4225000000
47 1 5.2605970740 23.4772576094 -3.6150000000
48 1 4.8222138849 25.2771708070 -1.8075000000
49 1 4.3838306958 27.0726671292 0.0000000000
50 1 3.9454475066 28.8579676632 1.8075000000
51 1 7.0141296313 23.9275522611 -5.4225000000
52 1 6.5757464422 25.7149801328 -3.6150000000
53 1 6.1373632530 27.5005673174 -1.8075000000
54 1 5.6989800639 29.2811197759 0.0000000000
55 1 8.3292789995 26.1549029519 -5.4225000000
56 1 7.8908958103 27.9339808058 -3.6150000000
57 1 9.6444283676 28.3703281316 -5.4225000000
58 2 0.0000001993 7.8909274674 -5.4225000000
59 2 0.4383833884 9.6507684113 -3.6150000000
60 2 1.3151497667 13.1740049548 -3.6150000000
61 2 0.8767665776 11.4115972639 -1.8075000000
62 2 0.0000003986 15.3434671726 0.0000000000
63 1 2.6302985370 11.4402097701 -5.4225000000
64 1 2.1919153479 13.1909380830 -3.6150000000
65 1 1.7535321587 14.9416464420 -1.8075000000
66 2 0.4383835877 17.1076840353 -1.8075000000
67 2 1.3151499660 20.6625395006 1.8075000000
68 2 0.8767667768 18.8779403730 3.6150000000
69 2 0.0000005978 22.7960069471 5.4225000000
70 1 3.9454479052 13.6610004009 -5.4225000000
71 1 3.5070647160 15.4168130484 -3.6150000000
72 1 3.0686815269 17.1753103742 -1.8075000000
73 1 2.6302983377 18.9391046127 0.0000000000
74 1 2.1919151486 20.7160892354 1.8075000000
75 1 1.7535319595 22.5368027667 3.6150000000
76 1 1.3151487703 24.4352074495 5.4225000000
77 1 0.8767655812 26.2648501160 7.2300000000
78 1 5.2605972733 15.8895017812 -5.4225000000
79 1 4.8222140842 17.6538510935 -3.6150000000
80 1 4.3838308950 19.4257758024 -1.8075000000
81 1 3.9454477059 21.2115509133 0.0000000000
82 1 3.5070645167 23.0199447488 1.8075000000
83 1 3.0686813276 24.8449427331 3.6150000000
84 1 2.6302981385 26.6562203569 5.4225000000
85 1 2.1919149493 28.4445261244 7.2300000000
86 1 6.5757466415 18.1253206415 -5.4225000000
87 1 6.1373634523 19.8994056579 -3.6150000000
88 1 5.6989802632 21.6830110844 -1.8075000000
89 1 5.2605970740 23.4772576094 0.0000000000
90 1 4.8222138849 25.2771708070 1.8075000000
91 1 4.3838306958 27.0726671292 3.6150000000
92 1 3.9454475066 28.8579676632 5.4225000000
93 1 7.8908960096 20.3633709758 -5.4225000000
94 1 7.4525128205 22.1427006426 -3.6150000000
95 1 7.0141296313 23.9275522611 -1.8075000000
96 1 6.5757464422 25.7149801328 0.0000000000
97 1 6.1373632530 27.5005673174 1.8075000000
98 1 5.6989800639 29.2811197759 3.6150000000
99 1 9.2060453778 22.5964040837 -5.4225000000
100 1 8.7676621886 24.3749448360 -3.6150000000
101 1 8.3292789995 26.1549029519 -1.8075000000
102 1 7.8908958103 27.9339808058 0.0000000000
103 1 10.5211947459 24.8208135014 -5.4225000000
104 1 10.0828115568 26.5957944018 -3.6150000000
105 1 9.6444283676 28.3703281316 -1.8075000000
106 1 11.8363441141 27.0371682715 -5.4225000000
107 1 11.3979609249 28.8083662552 -3.6150000000
108 1 13.1514934822 29.2474346109 -5.4225000000
109 2 1.3151495674 5.7159553837 -5.4225000000
110 2 0.8767663783 3.9565003793 -3.6150000000
111 2 0.0000001993 7.8909274674 -1.8075000000
112 1 2.1919155472 5.7276603768 -5.4225000000
113 1 1.7535323580 7.4765601900 -3.6150000000
114 2 0.4383833884 9.6507684113 0.0000000000
115 2 1.3151497667 13.1740049548 0.0000000000
116 2 0.8767665776 11.4115972639 1.8075000000
117 2 0.0000003986 15.3434671726 3.6150000000
118 1 3.5070649153 7.9391595009 -5.4225000000
119 1 3.0686817262 9.6895871237 -3.6150000000
120 1 2.6302985370 11.4402097701 -1.8075000000
121 1 2.1919153479 13.1909380830 0.0000000000
122 1 1.7535321587 14.9416464420 1.8075000000
123 2 0.4383835877 17.1076840353 1.8075000000
124 2 1.3151499660 20.6625395006 5.4225000000
125 2 0.8767667768 18.8779403730 7.2300000000
126 1 4.8222142835 10.1537128555 -5.4225000000
127 1 4.3838310943 11.9068008461 -3.6150000000
128 1 3.9454479052 13.6610004009 -1.8075000000
129 1 3.5070647160 15.4168130484 0.0000000000
130 1 3.0686815269 17.1753103742 1.8075000000
131 1 2.6302983377 18.9391046127 3.6150000000
132 1 2.1919151486 20.7160892354 5.4225000000
133 1 1.7535319595 22.5368027667 7.2300000000
134 1 6.1373636516 12.3723179755 -5.4225000000
135 1 5.6989804625 14.1295313648 -3.6150000000
136 1 5.2605972733 15.8895017812 -1.8075000000
137 1 4.8222140842 17.6538510935 0.0000000000
138 1 4.3838308950 19.4257758024 1.8075000000
139 1 3.9454477059 21.2115509133 3.6150000000
140 1 3.5070645167 23.0199447488 5.4225000000
141 1 3.0686813276 24.8449427331 7.2300000000
142 1 7.4525130197 14.5954201992 -5.4225000000
143 1 7.0141298306 16.3580505366 -3.6150000000
144 1 6.5757466415 18.1253206415 -1.8075000000
145 1 6.1373634523 19.8994056579 0.0000000000
146 1 5.6989802632 21.6830110844 1.8075000000
147 1 5.2605970740 23.4772576094 3.6150000000
148 1 4.8222138849 25.2771708070 5.4225000000
149 1 4.3838306958 27.0726671292 7.2300000000
150 1 8.7676623879 16.8220904597 -5.4225000000
151 1 8.3292791988 18.5901097491 -3.6150000000
152 1 7.8908960096 20.3633709758 -1.8075000000
153 1 7.4525128205 22.1427006426 0.0000000000
154 1 7.0141296313 23.9275522611 1.8075000000
155 1 6.5757464422 25.7149801328 3.6150000000
156 1 6.1373632530 27.5005673174 5.4225000000
157 1 5.6989800639 29.2811197759 7.2300000000
158 1 10.0828117560 19.0496270632 -5.4225000000
159 1 9.6444285669 20.8210497680 -3.6150000000
160 1 9.2060453778 22.5964040837 -1.8075000000
161 1 8.7676621886 24.3749448360 0.0000000000
162 1 8.3292789995 26.1549029519 1.8075000000
163 1 7.8908958103 27.9339808058 3.6150000000
164 1 11.3979611242 21.2746539974 -5.4225000000
165 1 10.9595779351 23.0467270182 -3.6150000000
166 1 10.5211947459 24.8208135014 -1.8075000000
167 1 10.0828115568 26.5957944018 0.0000000000
168 1 9.6444283676 28.3703281316 1.8075000000
169 1 12.7131104923 23.4949479530 -5.4225000000
170 1 12.2747273032 25.2657452709 -3.6150000000
171 1 11.8363441141 27.0371682715 -1.8075000000
172 1 11.3979609249 28.8083662552 0.0000000000
173 1 14.0282598605 25.7100319234 -5.4225000000
174 1 13.5898766713 27.4787834224 -3.6150000000
175 1 13.1514934822 29.2474346109 -1.8075000000
176 1 15.3434092286 27.9205072440 -5.4225000000
177 2 0.8767661790 -3.4956465569 -5.4225000000
178 2 -0.0000000000 0.4383877648 -3.6150000000
179 1 1.7535325573 0.0217484567 -5.4225000000
180 2 0.4383831891 2.1973810659 -5.4225000000
181 2 1.3151495674 5.7159553837 -1.8075000000
182 2 0.8767663783 3.9565003793 0.0000000000
183 2 0.0000001993 7.8909274674 1.8075000000
184 1 3.0686819254 2.2300262102 -5.4225000000
185 1 2.6302987363 3.9787611759 -3.6150000000
186 1 2.1919155472 5.7276603768 -1.8075000000
187 1 1.7535323580 7.4765601900 0.0000000000
188 2 0.4383833884 9.6507684113 3.6150000000
189 2 1.3151497667 13.1740049548 3.6150000000
190 2 0.8767665776 11.4115972639 5.4225000000
191 2 0.0000003986 15.3434671726 7.2300000000
192 1 4.3838312936 4.4391992542 -5.4225000000
193 1 3.9454481044 6.1890043519 -3.6150000000
194 1 3.5070649153 7.9391595009 -1.8075000000
195 1 3.0686817262 9.6895871237 0.0000000000
196 1 2.6302985370 11.4402097701 1.8075000000
197 1 2.1919153479 13.1909380830 3.6150000000
198 1 1.7535321587 14.9416464420 5.4225000000
199 2 0.4383835877 17.1076840353 5.4225000000
200 1 5.6989806617 6.6499996015 -5.4225000000
201 1 5.2605974726 8.4014864629 -3.6150000000
202 1 4.8222142835 10.1537128555 -1.8075000000
203 1 4.3838310943 11.9068008461 0.0000000000
204 1 3.9454479052 13.6610004009 1.8075000000
205 1 3.5070647160 15.4168130484 3.6150000000
206 1 3.0686815269 17.1753103742 5.4225000000
207 1 2.6302983377 18.9391046127 7.2300000000
208 1 7.0141300299 8.8630855387 -5.4225000000
209 1 6.5757468407 10.6169966731 -3.6150000000
210 1 6.1373636516 12.3723179755 -1.8075000000
211 1 5.6989804625 14.1295313648 0.0000000000
212 1 5.2605972733 15.8895017812 1.8075000000
213 1 4.8222140842 17.6538510935 3.6150000000
214 1 4.3838308950 19.4257758024 5.4225000000
215 1 3.9454477059 21.2115509133 7.2300000000
216 1 8.3292793980 11.0789028836 -5.4225000000
217 1 7.8908962089 12.8360019689 -3.6150000000
218 1 7.4525130197 14.5954201992 -1.8075000000
219 1 7.0141298306 16.3580505366 0.0000000000
220 1 6.5757466415 18.1253206415 1.8075000000
221 1 6.1373634523 19.8994056579 3.6150000000
222 1 5.6989802632 21.6830110844 5.4225000000
223 1 5.2605970740 23.4772576094 7.2300000000
224 1 9.6444287662 13.2974209084 -5.4225000000
225 1 9.2060455770 15.0581842519 -3.6150000000
226 1 8.7676623879 16.8220904597 -1.8075000000
227 1 8.3292791988 18.5901097491 0.0000000000
228 1 7.8908960096 20.3633709758 1.8075000000
229 1 7.4525128205 22.1427006426 3.6150000000
230 1 7.0141296313 23.9275522611 5.4225000000
231 1 6.5757464422 25.7149801328 7.2300000000
232 1 10.9595781343 15.5178495983 -5.4225000000
233 1 10.5211949452 17.2820532532 -3.6150000000
234 1 10.0828117560 19.0496270632 -1.8075000000
235 1 9.6444285669 20.8210497680 0.0000000000
236 1 9.2060453778 22.5964040837 1.8075000000
237 1 8.7676621886 24.3749448360 3.6150000000
238 1 8.3292789995 26.1549029519 5.4225000000
239 1 7.8908958103 27.9339808058 7.2300000000
240 1 12.2747275025 17.7386371528 -5.4225000000
241 1 11.8363443133 19.5052345898 -3.6150000000
242 1 11.3979611242 21.2746539974 -1.8075000000
243 1 10.9595779351 23.0467270182 0.0000000000
244 1 10.5211947459 24.8208135014 1.8075000000
245 1 10.0828115568 26.5957944018 3.6150000000
246 1 9.6444283676 28.3703281316 5.4225000000
247 1 13.5898768706 19.9579687053 -5.4225000000
248 1 13.1514936815 21.7255216777 -3.6150000000
249 1 12.7131104923 23.4949479530 -1.8075000000
250 1 12.2747273032 25.2657452709 0.0000000000
251 1 11.8363441141 27.0371682715 1.8075000000
252 1 11.3979609249 28.8083662552 3.6150000000
253 1 14.9050262388 22.1744682922 -5.4225000000
254 1 14.4666430496 23.9417538130 -3.6150000000
255 1 14.0282598605 25.7100319234 -1.8075000000
256 1 13.5898766713 27.4787834224 0.0000000000
257 1 13.1514934822 29.2474346109 1.8075000000
258 1 16.2201756069 24.3875434990 -5.4225000000
259 1 15.7817924178 26.1538353562 -3.6150000000
260 1 15.3434092286 27.9205072440 -1.8075000000
261 1 17.5353249751 26.5972533905 -5.4225000000
262 1 17.0969417859 28.3622614594 -3.6150000000
263 1 18.8504743432 28.8039976060 -5.4225000000
264 2 -0.0000001993 -7.0141519379 -5.4225000000
265 2 0.4383829899 -5.2546461385 -3.6150000000
266 2 1.3151493681 -1.7368903799 -3.6150000000
267 2 0.8767661790 -3.4956465569 -1.8075000000
268 2 0.0000000000 0.4383877648 0.0000000000
269 1 2.6302989356 -3.4735067095 -5.4225000000
270 1 2.1919157464 -1.7261244674 -3.6150000000
271 1 1.7535325573 0.0217484567 -1.8075000000
272 2 0.4383831891 2.1973810659 -1.8075000000
273 2 1.3151495674 5.7159553837 1.8075000000
274 2 0.8767663783 3.9565003793 3.6150000000
275 2 0.0000001993 7.8909274674 5.4225000000
276 1 3.9454483037 -1.2663264420 -5.4225000000
277 1 3.5070651146 0.4816097733 -3.6150000000
278 1 3.0686819254 2.2300262102 -1.8075000000
279 1 2.6302987363 3.9787611759 0.0000000000
280 1 2.1919155472 5.7276603768 1.8075000000
281 1 1.7535323580 7.4765601900 3.6150000000
282 2 0.4383833884 9.6507684113 7.2300000000
283 2 1.3151497667 13.1740049548 7.2300000000
284 1 5.2605976719 0.9409945431 -5.4225000000
285 1 4.8222144827 2.6898295450 -3.6150000000
286 1 4.3838312936 4.4391992542 -1.8075000000
287 1 3.9454481044 6.1890043519 0.0000000000
288 1 3.5070649153 7.9391595009 1.8075000000
289 1 3.0686817262 9.6895871237 3.6150000000
290 1 2.6302985370 11.4402097701 5.4225000000
291 1 2.1919153479 13.1909380830 7.2300000000
292 1 6.5757470400 3.1491015087 -5.4225000000
293 1 6.1373638509 4.8992042737 -3.6150000000
294 1 5.6989806617 6.6499996015 -1.8075000000
295 1 5.2605974726 8.4014864629 0.0000000000
296 1 4.8222142835 10.1537128555 1.8075000000
297 1 4.3838310943 11.9068008461 3.6150000000
298 1 3.9454479052 13.6610004009 5.4225000000
299 1 3.5070647160 15.4168130484 7.2300000000
300 1 7.8908964082 5.3585227706 -5.4225000000
301 1 7.4525132190 7.1103111561 -3.6150000000
302 1 7.0141300299 8.8630855387 -1.8075000000
303 1 6.5757468407 10.6169966731 0.0000000000
304 1 6.1373636516 12.3723179755 1.8075000000
305 1 5.6989804625 14.1295313648 3.6150000000
306 1 5.2605972733 15.8895017812 5.4225000000
307 1 4.8222140842 17.6538510935 7.2300000000
308 1 9.2060457763 7.5696492348 -5.4225000000
309 1 8.7676625872 9.3235672678 -3.6150000000
310 1 8.3292793980 11.0789028836 -1.8075000000
311 1 7.8908962089 12.8360019689 0.0000000000
312 1 7.4525130197 14.5954201992 1.8075000000
313 1 7.0141298306 16.3580505366 3.6150000000
314 1 6.5757466415 18.1253206415 5.4225000000
315 1 6.1373634523 19.8994056579 7.2300000000
316 1 10.5211951445 9.7826528660 -5.4225000000
317 1 10.0828119553 11.5390791909 -3.6150000000
318 1 9.6444287662 13.2974209084 -1.8075000000
319 1 9.2060455770 15.0581842519 0.0000000000
320 1 8.7676623879 16.8220904597 1.8075000000
321 1 8.3292791988 18.5901097491 3.6150000000
322 1 7.8908960096 20.3633709758 5.4225000000
323 1 7.4525128205 22.1427006426 7.2300000000
324 1 11.8363445126 11.9973665236 -5.4225000000
325 1 11.3979613235 13.7564543010 -3.6150000000
326 1 10.9595781343 15.5178495983 -1.8075000000
327 1 10.5211949452 17.2820532532 0.0000000000
328 1 10.0828117560 19.0496270632 1.8075000000
329 1 9.6444285669 20.8210497680 3.6150000000
330 1 9.2060453778 22.5964040837 5.4225000000
331 1 8.7676621886 24.3749448360 7.2300000000
332 1 13.1514938808 14.2131982560 -5.4225000000
333 1 12.7131106916 15.9747194711 -3.6150000000
334 1 12.2747275025 17.7386371528 -1.8075000000
335 1 11.8363443133 19.5052345898 0.0000000000
336 1 11.3979611242 21.2746539974 1.8075000000
337 1 10.9595779351 23.0467270182 3.6150000000
338 1 10.5211947459 24.8208135014 5.4225000000
339 1 10.0828115568 26.5957944018 7.2300000000
340 1 14.4666432489 16.4291897938 -5.4225000000
341 1 14.0282600598 18.1925196914 -3.6150000000
342 1 13.5898768706 19.9579687053 -1.8075000000
343 1 13.1514936815 21.7255216777 0.0000000000
344 1 12.7131104923 23.4949479530 1.8075000000
345 1 12.2747273032 25.2657452709 3.6150000000
346 1 11.8363441141 27.0371682715 5.4225000000
347 1 11.3979609249 28.8083662552 7.2300000000
348 1 15.7817926171 18.6442617312 -5.4225000000
349 1 15.3434094279 20.4085622917 -3.6150000000
350 1 14.9050262388 22.1744682922 -1.8075000000
351 1 14.4666430496 23.9417538130 0.0000000000
352 1 14.0282598605 25.7100319234 1.8075000000
353 1 13.5898766713 27.4787834224 3.6150000000
354 1 13.1514934822 29.2474346109 5.4225000000
355 1 17.0969419852 20.8575257105 -5.4225000000
356 1 16.6585587961 22.6220072024 -3.6150000000
357 1 16.2201756069 24.3875434990 -1.8075000000
358 1 15.7817924178 26.1538353562 0.0000000000
359 1 15.3434092286 27.9205072440 1.8075000000
360 1 18.4120913534 23.0684741190 -5.4225000000
361 1 17.9737081642 24.8325641843 -3.6150000000
362 1 17.5353249751 26.5972533905 -1.8075000000
363 1 17.0969417859 28.3622614594 0.0000000000
364 1 19.7272407215 25.2769776602 -5.4225000000
365 1 19.2888575324 27.0403494489 -3.6150000000
366 1 18.8504743432 28.8039976060 -1.8075000000
367 1 21.0423900897 27.4831672407 -5.4225000000
368 1 20.6040069005 29.2456847857 -3.6150000000
369 2 1.3151491689 -9.1851394651 -5.4225000000
370 2 0.8767659797 -10.9440478059 -3.6150000000
371 2 -0.0000001993 -7.0141519379 -1.8075000000
372 1 2.1919159457 -9.1728486429 -5.4225000000
373 1 1.7535327566 -7.4277294955 -3.6150000000
374 2 0.4383829899 -5.2546461385 0.0000000000
375 2 1.3151493681 -1.7368903799 0.0000000000
376 2 0.8767661790 -3.4956465569 1.8075000000
377 2 0.0000000000 0.4383877648 3.6150000000
378 1 3.5070653139 -6.9657531498 -5.4225000000
379 1 3.0686821247 -5.2201531643 -3.6150000000
380 1 2.6302989356 -3.4735067095 -1.8075000000
381 1 2.1919157464 -1.7261244674 0.0000000000
382 1 1.7535325573 0.0217484567 1.8075000000
383 2 0.4383831891 2.1973810659 1.8075000000
384 2 1.3151495674 5.7159553837 5.4225000000
385 2 0.8767663783 3.9565003793 7.2300000000
386 1 4.8222146820 -4.7599853450 -5.4225000000
387 1 4.3838314929 -3.0135985804 -3.6150000000
388 1 3.9454483037 -1.2663264420 -1.8075000000
389 1 3.5070651146 0.4816097733 0.0000000000
390 1 3.0686819254 2.2300262102 1.8075000000
391 1 2.6302987363 3.9787611759 3.6150000000
392 1 2.1919155472 5.7276603768 5.4225000000
393 1 1.7535323580 7.4765601900 7.2300000000
394 1 6.1373640502 -2.5545667860 -5.4225000000
395 1 5.6989808610 -0.8071863121 -3.6150000000
396 1 5.2605976719 0.9409945431 -1.8075000000
397 1 4.8222144827 2.6898295450 0.0000000000
398 1 4.3838312936 4.4391992542 1.8075000000
399 1 3.9454481044 6.1890043519 3.6150000000
400 1 3.5070649153 7.9391595009 5.4225000000
401 1 3.0686817262 9.6895871237 7.2300000000
402 1 7.4525134183 -0.3488408850 -5.4225000000
403 1 7.0141302292 1.3997296110 -3.6150000000
404 1 6.5757470400 3.1491015087 -1.8075000000
405 1 6.1373638509 4.8992042737 0.0000000000
406 1 5.6989806617 6.6499996015 1.8075000000
407 1 5.2605974726 8.4014864629 3.6150000000
408 1 4.8222142835 10.1537128555 5.4225000000
409 1 4.3838310943 11.9068008461 7.2300000000
410 1 8.7676627865 1.8576683499 -5.4225000000
411 1 8.3292795973 3.6076478850 -3.6150000000
412 1 7.8908964082 5.3585227706 -1.8075000000
413 1 7.4525132190 7.1103111561 0.0000000000
414 1 7.0141300299 8.8630855387 1.8075000000
415 1 6.5757468407 10.6169966731 3.6150000000
416 1 6.1373636516 12.3723179755 5.4225000000
417 1 5.6989804625 14.1295313648 7.2300000000
418 1 10.0828121546 4.0653056056 -5.4225000000
419 1 9.6444289655 5.8169365525 -3.6150000000
420 1 9.2060457763 7.5696492348 -1.8075000000
421 1 8.7676625872 9.3235672678 0.0000000000
422 1 8.3292793980 11.0789028836 1.8075000000
423 1 7.8908962089 12.8360019689 3.6150000000
424 1 7.4525130197 14.5954201992 5.4225000000
425 1 7.0141298306 16.3580505366 7.2300000000
426 1 11.3979615227 6.2742785881 -5.4225000000
427 1 10.9595783336 8.0277962592 -3.6150000000
428 1 10.5211951445 9.7826528660 -1.8075000000
429 1 10.0828119553 11.5390791909 0.0000000000
430 1 9.6444287662 13.2974209084 1.8075000000
431 1 9.2060455770 15.0581842519 3.6150000000
432 1 8.7676623879 16.8220904597 5.4225000000
433 1 8.3292791988 18.5901097491 7.2300000000
434 1 12.7131108909 8.4846177138 -5.4225000000
435 1 12.2747277018 10.2401875220 -3.6150000000
436 1 11.8363445126 11.9973665236 -1.8075000000
437 1 11.3979613235 13.7564543010 0.0000000000
438 1 10.9595781343 15.5178495983 1.8075000000
439 1 10.5211949452 17.2820532532 3.6150000000
440 1 10.0828117560 19.0496270632 5.4225000000
441 1 9.6444285669 20.8210497680 7.2300000000
442 1 14.0282602590 10.6961267684 -5.4225000000
443 1 13.5898770699 12.4537618961 -3.6150000000
444 1 13.1514938808 14.2131982560 -1.8075000000
445 1 12.7131106916 15.9747194711 0.0000000000
446 1 12.2747275025 17.7386371528 1.8075000000
447 1 11.8363443133 19.5052345898 3.6150000000
448 1 11.3979611242 21.2746539974 5.4225000000
449 1 10.9595779351 23.0467270182 7.2300000000
450 1 15.3434096272 12.9083645582 -5.4225000000
451 1 14.9050264381 14.6678629889 -3.6150000000
452 1 14.4666432489 16.4291897938 -1.8075000000
453 1 14.0282600598 18.1925196914 0.0000000000
454 1 13.5898768706 19.9579687053 1.8075000000
455 1 13.1514936815 21.7255216777 3.6150000000
456 1 12.7131104923 23.4949479530 5.4225000000
457 1 12.2747273032 25.2657452709 7.2300000000
458 1 16.6585589953 15.1206981244 -5.4225000000
459 1 16.2201758062 16.8816480088 -3.6150000000
460 1 15.7817926171 18.6442617312 -1.8075000000
461 1 15.3434094279 20.4085622917 0.0000000000
462 1 14.9050262388 22.1744682922 1.8075000000
463 1 14.4666430496 23.9417538130 3.6150000000
464 1 14.0282598605 25.7100319234 5.4225000000
465 1 13.5898766713 27.4787834224 7.2300000000
466 1 17.9737083635 17.3324324072 -5.4225000000
467 1 17.5353251743 19.0942995165 -3.6150000000
468 1 17.0969419852 20.8575257105 -1.8075000000
469 1 16.6585587961 22.6220072024 0.0000000000
470 1 16.2201756069 24.3875434990 1.8075000000
471 1 15.7817924178 26.1538353562 3.6150000000
472 1 15.3434092286 27.9205072440 5.4225000000
473 1 19.2888577316 19.5429650061 -5.4225000000
474 1 18.8504745425 21.3052172545 -3.6150000000
475 1 18.4120913534 23.0684741190 -1.8075000000
476 1 17.9737081642 24.8325641843 0.0000000000
477 1 17.5353249751 26.5972533905 1.8075000000
478 1 17.0969417859 28.3622614594 3.6150000000
479 1 20.6040070998 21.7518929757 -5.4225000000
480 1 20.1656239106 23.5140969897 -3.6150000000
481 1 19.7272407215 25.2769776602 -1.8075000000
482 1 19.2888575324 27.0403494489 0.0000000000
483 1 18.8504743432 28.8039976060 1.8075000000
484 1 21.9191564679 23.9590361358 -5.4225000000
485 1 21.4807732788 25.7208949552 -3.6150000000
486 1 21.0423900897 27.4831672407 -1.8075000000
487 1 20.6040069005 29.2456847857 0.0000000000
488 1 23.2343058361 26.1643954830 -5.4225000000
489 1 22.7959226469 27.9257385653 -3.6150000000
490 1 24.5494552042 28.3680876956 -5.4225000000
491 2 0.8767657804 -18.3650681657 -5.4225000000
492 2 -0.0000003986 -14.4666916447 -3.6150000000
493 1 1.7535329558 -14.8646547961 -5.4225000000
494 2 0.4383827906 -12.7041807405 -5.4225000000
495 2 1.3151491689 -9.1851394651 -1.8075000000
496 2 0.8767659797 -10.9440478059 0.0000000000
497 2 -0.0000001993 -7.0141519379 1.8075000000
498 1 3.0686823240 -12.6564943161 -5.4225000000
499 1 2.6302991349 -10.9160857040 -3.6150000000
500 1 2.1919159457 -9.1728486429 -1.8075000000
501 1 1.7535327566 -7.4277294955 0.0000000000
502 2 0.4383829899 -5.2546461385 3.6150000000
503 2 1.3151493681 -1.7368903799 3.6150000000
504 2 0.8767661790 -3.4956465569 5.4225000000
505 2 0.0000000000 0.4383877648 7.2300000000
506 1 4.3838316921 -10.4520172181 -5.4225000000
507 1 3.9454485030 -8.7098946700 -3.6150000000
508 1 3.5070653139 -6.9657531498 -1.8075000000
509 1 3.0686821247 -5.2201531643 0.0000000000
510 1 2.6302989356 -3.4735067095 1.8075000000
511 1 2.1919157464 -1.7261244674 3.6150000000
512 1 1.7535325573 0.0217484567 5.4225000000
513 2 0.4383831891 2.1973810659 5.4225000000
514 1 5.6989810603 -8.2489255277 -5.4225000000
515 1 5.2605978711 -6.5052108213 -3.6150000000
516 1 4.8222146820 -4.7599853450 -1.8075000000
517 1 4.3838314929 -3.0135985804 0.0000000000
518 1 3.9454483037 -1.2663264420 1.8075000000
519 1 3.5070651146 0.4816097733 3.6150000000
520 1 3.0686819254 2.2300262102 5.4225000000
521 1 2.6302987363 3.9787611759 7.2300000000
522 1 7.0141304284 -6.0461638503 -5.4225000000
523 1 6.5757472393 -4.3009665386 -3.6150000000
524 1 6.1373640502 -2.5545667860 -1.8075000000
525 1 5.6989808610 -0.8071863121 0.0000000000
526 1 5.2605976719 0.9409945431 1.8075000000
527 1 4.8222144827 2.6898295450 3.6150000000
528 1 4.3838312936 4.4391992542 5.4225000000
529 1 3.9454481044 6.1890043519 7.2300000000
530 1 8.3292797966 -3.8431422566 -5.4225000000
531 1 7.8908966074 -2.0965087682 -3.6150000000
532 1 7.4525134183 -0.3488408850 -1.8075000000
533 1 7.0141302292 1.3997296110 0.0000000000
534 1 6.5757470400 3.1491015087 1.8075000000
535 1 6.1373638509 4.8992042737 3.6150000000
536 1 5.6989806617 6.6499996015 5.4225000000
537 1 5.2605974726 8.4014864629 7.2300000000
538 1 9.6444291647 -1.6394800750 -5.4225000000
539 1 9.2060459756 0.1086070359 -3.6150000000
540 1 8.7676627865 1.8576683499 -1.8075000000
541 1 8.3292795973 3.6076478850 0.0000000000
542 1 7.8908964082 5.3585227706 1.8075000000
543 1 7.4525132190 7.1103111561 3.6150000000
544 1 7.0141300299 8.8630855387 5.4225000000
545 1 6.5757468407 10.6169966731 7.2300000000
546 1 10.9595785329 0.5650853365 -5.4225000000
547 1 10.5211953437 2.3146943262 -3.6150000000
548 1 10.0828121546 4.0653056056 -1.8075000000
549 1 9.6444289655 5.8169365525 0.0000000000
550 1 9.2060457763 7.5696492348 1.8075000000
551 1 8.7676625872 9.3235672678 3.6150000000
552 1 8.3292793980 11.0789028836 5.4225000000
553 1 7.8908962089 12.8360019689 7.2300000000
554 1 12.2747279010 2.7707235108 -5.4225000000
555 1 11.8363447119 4.5219509600 -3.6150000000
556 1 11.3979615227 6.2742785881 -1.8075000000
557 1 10.9595783336 8.0277962592 0.0000000000
558 1 10.5211951445 9.7826528660 1.8075000000
559 1 10.0828119553 11.5390791909 3.6150000000
560 1 9.6444287662 13.2974209084 5.4225000000
561 1 9.2060455770 15.0581842519 7.2300000000
562 1 13.5898772692 4.9775031989 -5.4225000000
563 1 13.1514940800 6.7304402307 -3.6150000000
564 1 12.7131108909 8.4846177138 -1.8075000000
565 1 12.2747277018 10.2401875220 0.0000000000
566 1 11.8363445126 11.9973665236 1.8075000000
567 1 11.3979613235 13.7564543010 3.6150000000
568 1 10.9595781343 15.5178495983 5.4225000000
569 1 10.5211949452 17.2820532532 7.2300000000
570 1 14.9050266373 7.1853696272 -5.4225000000
571 1 14.4666434482 8.9400575936 -3.6150000000
572 1 14.0282602590 10.6961267684 -1.8075000000
573 1 13.5898770699 12.4537618961 0.0000000000
574 1 13.1514938808 14.2131982560 1.8075000000
575 1 12.7131106916 15.9747194711 3.6150000000
576 1 12.2747275025 17.7386371528 5.4225000000
577 1 11.8363443133 19.5052345898 7.2300000000
578 1 16.2201760055 9.3941238437 -5.4225000000
579 1 15.7817928163 11.1505086680 -3.6150000000
580 1 15.3434096272 12.9083645582 -1.8075000000
581 1 14.9050264381 14.6678629889 0.0000000000
582 1 14.4666432489 16.4291897938 1.8075000000
583 1 14.0282600598 18.1925196914 3.6150000000
584 1 13.5898768706 19.9579687053 5.4225000000
585 1 13.1514936815 21.7255216777 7.2300000000
586 1 17.5353253736 11.6034238945 -5.4225000000
587 1 17.0969421845 13.3613274764 -3.6150000000
588 1 16.6585589953 15.1206981244 -1.8075000000
589 1 16.2201758062 16.8816480088 0.0000000000
590 1 15.7817926171 18.6442617312 1.8075000000
591 1 15.3434094279 20.4085622917 3.6150000000
592 1 14.9050262388 22.1744682922 5.4225000000
593 1 14.4666430496 23.9417538130 7.2300000000
594 1 18.8504747418 13.8128227593 -5.4225000000
595 1 18.4120915526 15.5719497704 -3.6150000000
596 1 17.9737083635 17.3324324072 -1.8075000000
597 1 17.5353251743 19.0942995165 0.0000000000
598 1 17.0969419852 20.8575257105 1.8075000000
599 1 16.6585587961 22.6220072024 3.6150000000
600 1 16.2201756069 24.3875434990 5.4225000000
601 1 15.7817924178 26.1538353562 7.2300000000
602 1 20.1656241099 16.0218406552 -5.4225000000
603 1 19.7272409208 17.7818233636 -3.6150000000
604 1 19.2888577316 19.5429650061 -1.8075000000
605 1 18.8504745425 21.3052172545 0.0000000000
606 1 18.4120913534 23.0684741190 1.8075000000
607 1 17.9737081642 24.8325641843 3.6150000000
608 1 17.5353249751 26.5972533905 5.4225000000
609 1 17.0969417859 28.3622614594 7.2300000000
610 1 21.4807734781 18.2300479648 -5.4225000000
611 1 21.0423902889 19.9905101319 -3.6150000000
612 1 20.6040070998 21.7518929757 -1.8075000000
613 1 20.1656239106 23.5140969897 0.0000000000
614 1 19.7272407215 25.2769776602 1.8075000000
615 1 19.2888575324 27.0403494489 3.6150000000
616 1 18.8504743432 28.8039976060 5.4225000000
617 1 22.7959228462 20.4371274197 -5.4225000000
618 1 22.3575396571 22.1977398315 -3.6150000000
619 1 21.9191564679 23.9590361358 -1.8075000000
620 1 21.4807732788 25.7208949552 0.0000000000
621 1 21.0423900897 27.4831672407 1.8075000000
622 1 20.6040069005 29.2456847857 3.6150000000
623 1 24.1110722144 22.6428974118 -5.4225000000
624 1 23.6726890252 24.4034080192 -3.6150000000
625 1 23.2343058361 26.1643954830 -1.8075000000
626 1 22.7959226469 27.9257385653 0.0000000000
627 1 25.4262215825 24.8472997670 -5.4225000000
628 1 24.9878383934 26.6075381650 -3.6150000000
629 1 24.5494552042 28.3680876956 -1.8075000000
630 1 26.7413709507 27.0503681649 -5.4225000000
631 1 26.3029877615 28.8102339536 -3.6150000000
632 1 28.0565203188 29.2521932812 -5.4225000000
633 1 0.0000005978 -22.3576224832 -5.4225000000
634 2 0.4383825913 -20.1023675323 -3.6150000000
635 2 1.3151489696 -16.6138051556 -3.6150000000
636 2 0.8767657804 -18.3650681657 -1.8075000000
637 2 -0.0000003986 -14.4666916447 0.0000000000
638 1 2.6302993341 -18.3143644763 -5.4225000000
639 1 2.1919161450 -16.5962454418 -3.6150000000