#LAMMPS data file
14624 atoms
2 atom types
-125.2250000000 125.2250000000 xlo xhi
-29.8100853000 29.8100853000 ylo yhi
-7.2300000000 7.2300000000 zlo zhi
0.0 0.0 0.0 xy xz yz

Atoms # atomic

1 2 0.877903 27.905484 -6.783200
2 2 -0.289722 22.637985 -4.975700
3 2 0.877903 24.224760 -6.783200
4 2 0.877903 26.078402 -4.975700
5 2 0.877903 27.905484 -3.168200
6 1 2.756543 26.419623 -6.783200
7 1 2.420227 28.296061 -4.975700
8 1 4.116021 28.682181 -6.783200
9 2 0.877903 18.625880 -6.783200
10 2 0.877903 20.452963 -4.975700
11 2 -0.289722 22.637985 -1.360700
12 1 2.420227 20.843540 -6.783200
13 1 2.045527 22.637985 -4.975700
14 2 0.877903 24.224760 -3.168200
15 2 0.877903 26.078402 -1.360700
16 2 0.877903 27.905484 0.446800
17 1 3.649412 23.079178 -6.783200
18 1 3.111031 24.796951 -4.975700
19 1 2.756543 26.419623 -3.168200
20 1 2.420227 28.296061 -1.360700
21 1 4.964173 25.210715 -6.783200
22 1 4.530615 26.931245 -4.975700
23 1 4.116021 28.682181 -3.168200
24 1 6.288443 27.391245 -6.783200
25 1 5.824425 29.155329 -4.975700
26 2 0.877903 13.000441 -6.783200
27 2 -0.289722 15.185463 -3.168200
28 1 2.045527 15.185463 -6.783200
29 2 0.877903 16.772239 -4.975700
30 2 0.877903 18.625880 -3.168200
31 2 0.877903 20.452963 -1.360700
32 2 -0.289722 22.637985 2.254300
33 1 3.111031 17.344429 -6.783200
34 1 2.756543 18.967102 -4.975700
35 1 2.420227 20.843540 -3.168200
36 1 2.045527 22.637985 -1.360700
37 2 0.877903 24.224760 0.446800
38 2 0.877903 26.078402 2.254300
39 2 0.877903 27.905484 4.061800
40 1 4.530615 19.478724 -6.783200
41 1 4.116021 21.229660 -4.975700
42 1 3.649412 23.079178 -3.168200
43 1 3.111031 24.796951 -1.360700
44 1 2.756543 26.419623 0.446800
45 1 2.420227 28.296061 2.254300
46 1 5.824425 21.702808 -6.783200
47 1 5.372808 23.466466 -4.975700
48 1 4.964173 25.210715 -3.168200
49 1 4.530615 26.931245 -1.360700
50 1 4.116021 28.682181 0.446800
51 1 7.144789 23.888524 -6.783200
52 1 6.722981 25.638660 -4.975700
53 1 6.288443 27.391245 -3.168200
54 1 5.824425 29.155329 -1.360700
55 1 8.471667 26.078791 -6.783200
56 1 8.026421 27.839080 -4.975700
57 1 9.776258 28.276413 -6.783200
58 2 -0.289722 7.732942 -4.975700
59 2 0.877903 9.319717 -6.783200
60 2 0.877903 11.173359 -4.975700
61 2 0.877903 13.000441 -3.168200
62 2 -0.289722 15.185463 0.446800
63 1 2.756543 11.514580 -6.783200
64 1 2.420227 13.391019 -4.975700
65 1 2.045527 15.185463 -3.168200
66 2 0.877903 16.772239 -1.360700
67 2 0.877903 18.625880 0.446800
68 2 0.877903 20.452963 2.254300
69 2 -0.289722 22.637985 5.869300
70 1 4.116021 13.777138 -6.783200
71 1 3.649412 15.626657 -4.975700
72 1 3.111031 17.344429 -3.168200
73 1 2.756543 18.967102 -1.360700
74 1 2.420227 20.843540 0.446800
75 1 2.045527 22.637985 2.254300
76 2 0.877903 24.224760 4.061800
77 2 0.877903 26.078402 5.869300
78 1 5.372808 16.013944 -6.783200
79 1 4.964173 17.758194 -4.975700
80 1 4.530615 19.478724 -3.168200
81 1 4.116021 21.229660 -1.360700
82 1 3.649412 23.079178 0.446800
83 1 3.111031 24.796951 2.254300
84 1 2.756543 26.419623 4.061800
85 1 2.420227 28.296061 5.869300
86 1 6.722981 18.186139 -6.783200
87 1 6.288443 19.938723 -4.975700
88 1 5.824425 21.702808 -3.168200
89 1 5.372808 23.466466 -1.360700
90 1 4.964173 25.210715 0.446800
91 1 4.530615 26.931245 2.254300
92 1 4.116021 28.682181 4.061800
93 1 8.026421 20.386558 -6.783200
94 1 7.576977 22.141688 -4.975700
95 1 7.144789 23.888524 -3.168200
96 1 6.722981 25.638660 -1.360700
97 1 6.288443 27.391245 0.446800
98 1 5.824425 29.155329 2.254300
99 1 9.338774 22.575627 -6.783200
100 1 8.906201 24.325118 -4.975700
101 1 8.471667 26.078791 -3.168200
102 1 8.026421 27.839080 -1.360700
103 1 10.659476 24.765294 -6.783200
104 1 10.218698 26.520830 -4.975700
105 1 9.776258 28.276413 -3.168200
106 1 11.970386 26.959603 -6.783200
107 1 11.531903 28.712687 -4.975700
108 1 13.287039 29.150209 -6.783200
109 2 0.877903 3.720838 -6.783200
110 2 0.877903 5.547920 -4.975700
111 2 -0.289722 7.732942 -1.360700
112 1 2.420227 5.938497 -6.783200
113 1 2.045527 7.732942 -4.975700
114 2 0.877903 9.319717 -3.168200
115 2 0.877903 11.173359 -1.360700
116 2 0.877903 13.000441 0.446800
117 2 -0.289722 15.185463 4.061800
118 1 3.649412 8.174136 -6.783200
119 1 3.111031 9.891908 -4.975700
120 1 2.756543 11.514580 -3.168200
121 1 2.420227 13.391019 -1.360700
122 1 2.045527 15.185463 0.446800
123 2 0.877903 16.772239 2.254300
124 2 0.877903 18.625880 4.061800
125 2 0.877903 20.452963 5.869300
126 1 4.964173 10.305672 -6.783200
127 1 4.530615 12.026203 -4.975700
128 1 4.116021 13.777138 -3.168200
129 1 3.649412 15.626657 -1.360700
130 1 3.111031 17.344429 0.446800
131 1 2.756543 18.967102 2.254300
132 1 2.420227 20.843540 4.061800
133 1 2.045527 22.637985 5.869300
134 1 6.288443 12.486202 -6.783200
135 1 5.824425 14.250286 -4.975700
136 1 5.372808 16.013944 -3.168200
137 1 4.964173 17.758194 -1.360700
138 1 4.530615 19.478724 0.446800
139 1 4.116021 21.229660 2.254300
140 1 3.649412 23.079178 4.061800
141 1 3.111031 24.796951 5.869300
142 1 7.576977 14.689167 -6.783200
143 1 7.144789 16.436003 -4.975700
144 1 6.722981 18.186139 -3.168200
145 1 6.288443 19.938723 -1.360700
146 1 5.824425 21.702808 0.446800
147 1 5.372808 23.466466 2.254300
148 1 4.964173 25.210715 4.061800
149 1 4.530615 26.931245 5.869300
150 1 8.906201 16.872596 -6.783200
151 1 8.471667 18.626270 -4.975700
152 1 8.026421 20.386558 -3.168200
153 1 7.576977 22.141688 -1.360700
154 1 7.144789 23.888524 0.446800
155 1 6.722981 25.638660 2.254300
156 1 6.288443 27.391245 4.061800
157 1 5.824425 29.155329 5.869300
158 1 10.218698 19.068309 -6.783200
159 1 9.776258 20.823891 -4.975700
160 1 9.338774 22.575627 -3.168200
161 1 8.906201 24.325118 -1.360700
162 1 8.471667 26.078791 0.446800
163 1 8.026421 27.839080 2.254300
164 1 11.531903 21.260166 -6.783200
165 1 11.096038 23.012250 -4.975700
166 1 10.659476 24.765294 -3.168200
167 1 10.218698 26.520830 -1.360700
168 1 9.776258 28.276413 0.446800
169 1 12.849655 23.450935 -6.783200
170 1 12.410609 25.205211 -4.975700
171 1 11.970386 26.959603 -3.168200
172 1 11.531903 28.712687 -1.360700
173 1 14.163129 25.643842 -6.783200
174 1 13.724506 27.397304 -4.975700
175 1 13.287039 29.150209 -3.168200
176 1 15.478658 27.835272 -6.783200
177 2 0.877903 -1.904601 -6.783200
178 2 -0.289722 0.280421 -3.168200
179 1 2.045527 0.280421 -6.783200
180 2 0.877903 1.867196 -4.975700
181 2 0.877903 3.720838 -3.168200
182 2 0.877903 5.547920 -1.360700
183 2 -0.289722 7.732942 2.254300
184 1 3.111031 2.439387 -6.783200
185 1 2.756543 4.062059 -4.975700
186 1 2.420227 5.938497 -3.168200
187 1 2.045527 7.732942 -1.360700
188 2 0.877903 9.319717 0.446800
189 2 0.877903 11.173359 2.254300
190 2 0.877903 13.000441 4.061800
191 2 -0.289722 15.185463 -6.783200
192 1 4.530615 4.573681 -6.783200
193 1 4.116021 6.324617 -4.975700
194 1 3.649412 8.174136 -3.168200
195 1 3.111031 9.891908 -1.360700
196 1 2.756543 11.514580 0.446800
197 1 2.420227 13.391019 2.254300
198 1 2.045527 15.185463 4.061800
199 2 0.877903 16.772239 5.869300
200 1 5.824425 6.797765 -6.783200
201 1 5.372808 8.561423 -4.975700
202 1 4.964173 10.305672 -3.168200
203 1 4.530615 12.026203 -1.360700
204 1 4.116021 13.777138 0.446800
205 1 3.649412 15.626657 2.254300
206 1 3.111031 17.344429 4.061800
207 1 2.756543 18.967102 5.869300
208 1 7.144789 8.983481 -6.783200
209 1 6.722981 10.733618 -4.975700
210 1 6.288443 12.486202 -3.168200
211 1 5.824425 14.250286 -1.360700
212 1 5.372808 16.013944 0.446800
213 1 4.964173 17.758194 2.254300
214 1 4.530615 19.478724 4.061800
215 1 4.116021 21.229660 5.869300
216 1 8.471667 11.173748 -6.783200
217 1 8.026421 12.934037 -4.975700
218 1 7.576977 14.689167 -3.168200
219 1 7.144789 16.436003 -1.360700
220 1 6.722981 18.186139 0.446800
221 1 6.288443 19.938723 2.254300
222 1 5.824425 21.702808 4.061800
223 1 5.372808 23.466466 5.869300
224 1 9.776258 13.371370 -6.783200
225 1 9.338774 15.123105 -4.975700
226 1 8.906201 16.872596 -3.168200
227 1 8.471667 18.626270 -1.360700
228 1 8.026421 20.386558 0.446800
229 1 7.576977 22.141688 2.254300
230 1 7.144789 23.888524 4.061800
231 1 6.722981 25.638660 5.869300
232 1 11.096038 15.559728 -6.783200
233 1 10.659476 17.312773 -4.975700
234 1 10.218698 19.068309 -3.168200
235 1 9.776258 20.823891 -1.360700
236 1 9.338774 22.575627 0.446800
237 1 8.906201 24.325118 2.254300
238 1 8.471667 26.078791 4.061800
239 1 8.026421 27.839080 5.869300
240 1 12.410609 17.752690 -6.783200
241 1 11.970386 19.507081 -4.975700
242 1 11.531903 21.260166 -3.168200
243 1 11.096038 23.012250 -1.360700
244 1 10.659476 24.765294 0.446800
245 1 10.218698 26.520830 2.254300
246 1 9.776258 28.276413 4.061800
247 1 13.724506 19.944783 -6.783200
248 1 13.287039 21.697687 -4.975700
249 1 12.849655 23.450935 -3.168200
250 1 12.410609 25.205211 -1.360700
251 1 11.970386 26.959603 0.446800
252 1 11.531903 28.712687 2.254300
253 1 15.040749 22.136108 -6.783200
254 1 14.602237 23.889884 -4.975700
255 1 14.163129 25.643842 -3.168200
256 1 13.724506 27.397304 -1.360700
257 1 13.287039 29.150209 0.446800
258 1 16.355249 24.328412 -6.783200
259 1 15.916711 26.081971 -4.975700
260 1 15.478658 27.835272 -3.168200
261 1 17.670433 26.520157 -6.783200
262 1 17.232274 28.273605 -4.975700
263 1 18.985630 28.712042 -6.783200
264 2 -0.289722 -7.172101 -4.975700
265 2 0.877903 -5.585325 -6.783200
266 2 0.877903 -3.731684 -4.975700
267 2 0.877903 -1.904601 -3.168200
268 2 -0.289722 0.280421 0.446800
269 1 2.756543 -3.390462 -6.783200
270 1 2.420227 -1.514024 -4.975700
271 1 2.045527 0.280421 -3.168200
272 2 0.877903 1.867196 -1.360700
273 2 0.877903 3.720838 0.446800
274 2 0.877903 5.547920 2.254300
275 2 -0.289722 7.732942 5.869300
276 1 4.116021 -1.127904 -6.783200
277 1 3.649412 0.721614 -4.975700
278 1 3.111031 2.439387 -3.168200
279 1 2.756543 4.062059 -1.360700
280 1 2.420227 5.938497 0.446800
281 1 2.045527 7.732942 2.254300
282 2 0.877903 9.319717 4.061800
283 2 0.877903 11.173359 5.869300
284 1 5.372808 1.108902 -6.783200
285 1 4.964173 2.853151 -4.975700
286 1 4.530615 4.573681 -3.168200
287 1 4.116021 6.324617 -1.360700
288 1 3.649412 8.174136 0.446800
289 1 3.111031 9.891908 2.254300
290 1 2.756543 11.514580 4.061800
291 1 2.420227 13.391019 5.869300
292 1 6.722981 3.281096 -6.783200
293 1 6.288443 5.033681 -4.975700
294 1 5.824425 6.797765 -3.168200
295 1 5.372808 8.561423 -1.360700
296 1 4.964173 10.305672 0.446800
297 1 4.530615 12.026203 2.254300
298 1 4.116021 13.777138 4.061800
299 1 3.649412 15.626657 5.869300
300 1 8.026421 5.481516 -6.783200
301 1 7.576977 7.236645 -4.975700
302 1 7.144789 8.983481 -3.168200
303 1 6.722981 10.733618 -1.360700
304 1 6.288443 12.486202 0.446800
305 1 5.824425 14.250286 2.254300
306 1 5.372808 16.013944 4.061800
307 1 4.964173 17.758194 5.869300
308 1 9.338774 7.670584 -6.783200
309 1 8.906201 9.420075 -4.975700
310 1 8.471667 11.173748 -3.168200
311 1 8.026421 12.934037 -1.360700
312 1 7.576977 14.689167 0.446800
313 1 7.144789 16.436003 2.254300
314 1 6.722981 18.186139 4.061800
315 1 6.288443 19.938723 5.869300
316 1 10.659476 9.860252 -6.783200
317 1 10.218698 11.615788 -4.975700
318 1 9.776258 13.371370 -3.168200
319 1 9.338774 15.123105 -1.360700
320 1 8.906201 16.872596 0.446800
321 1 8.471667 18.626270 2.254300
322 1 8.026421 20.386558 4.061800
323 1 7.576977 22.141688 5.869300
324 1 11.970386 12.054560 -6.783200
325 1 11.531903 13.807645 -4.975700
326 1 11.096038 15.559728 -3.168200
327 1 10.659476 17.312773 -1.360700
328 1 10.218698 19.068309 0.446800
329 1 9.776258 20.823891 2.254300
330 1 9.338774 22.575627 4.061800
331 1 8.906201 24.325118 5.869300
332 1 13.287039 14.245166 -6.783200
333 1 12.849655 15.998414 -4.975700
334 1 12.410609 17.752690 -3.168200
335 1 11.970386 19.507081 -1.360700
336 1 11.531903 21.260166 0.446800
337 1 11.096038 23.012250 2.254300
338 1 10.659476 24.765294 4.061800
339 1 10.218698 26.520830 5.869300
340 1 14.602237 16.437363 -6.783200
341 1 14.163129 18.191320 -4.975700
342 1 13.724506 19.944783 -3.168200
343 1 13.287039 21.697687 -1.360700
344 1 12.849655 23.450935 0.446800
345 1 12.410609 25.205211 2.254300
346 1 11.970386 26.959603 4.061800
347 1 11.531903 28.712687 5.869300
348 1 15.916711 18.629450 -6.783200
349 1 15.478658 20.382751 -4.975700
350 1 15.040749 22.136108 -3.168200
351 1 14.602237 23.889884 -1.360700
352 1 14.163129 25.643842 0.446800
353 1 13.724506 27.397304 2.254300
354 1 13.287039 29.150209 4.061800
355 1 17.232274 20.821084 -6.783200
356 1 16.793906 22.574693 -4.975700
357 1 16.355249 24.328412 -3.168200
358 1 15.916711 26.081971 -1.360700
359 1 15.478658 27.835272 0.446800
360 1 18.547159 23.013136 -6.783200
361 1 18.108699 24.766703 -4.975700
362 1 17.670433 26.520157 -3.168200
363 1 17.232274 28.273605 -1.360700
364 1 19.862248 25.204987 -6.783200
365 1 19.423972 26.958485 -4.975700
366 1 18.985630 28.712042 -3.168200
367 1 21.177394 27.396867 -6.783200
368 1 20.738994 29.150437 -4.975700
369 2 0.877903 -11.184205 -6.783200
370 2 0.877903 -9.357122 -4.975700
371 2 -0.289722 -7.172101 -1.360700
372 1 2.420227 -8.966545 -6.783200
373 1 2.045527 -7.172101 -4.975700
374 2 0.877903 -5.585325 -3.168200
375 2 0.877903 -3.731684 -1.360700
376 2 0.877903 -1.904601 0.446800
377 2 -0.289722 0.280421 4.061800
378 1 3.649412 -6.730907 -6.783200
379 1 3.111031 -5.013135 -4.975700
380 1 2.756543 -3.390462 -3.168200
381 1 2.420227 -1.514024 -1.360700
382 1 2.045527 0.280421 0.446800
383 2 0.877903 1.867196 2.254300
384 2 0.877903 3.720838 4.061800
385 2 0.877903 5.547920 5.869300
386 1 4.964173 -4.599370 -6.783200
387 1 4.530615 -2.878840 -4.975700
388 1 4.116021 -1.127904 -3.168200
389 1 3.649412 0.721614 -1.360700
390 1 3.111031 2.439387 0.446800
391 1 2.756543 4.062059 2.254300
392 1 2.420227 5.938497 4.061800
393 1 2.045527 7.732942 5.869300
394 1 6.288443 -2.418841 -6.783200
395 1 5.824425 -0.654756 -4.975700
396 1 5.372808 1.108902 -3.168200
397 1 4.964173 2.853151 -1.360700
398 1 4.530615 4.573681 0.446800
399 1 4.116021 6.324617 2.254300
400 1 3.649412 8.174136 4.061800
401 1 3.111031 9.891908 5.869300
402 1 7.576977 -0.215876 -6.783200
403 1 7.144789 1.530960 -4.975700
404 1 6.722981 3.281096 -3.168200
405 1 6.288443 5.033681 -1.360700
406 1 5.824425 6.797765 0.446800
407 1 5.372808 8.561423 2.254300
408 1 4.964173 10.305672 4.061800
409 1 4.530615 12.026203 5.869300
410 1 8.906201 1.967554 -6.783200
411 1 8.471667 3.721227 -4.975700
412 1 8.026421 5.481516 -3.168200
413 1 7.576977 7.236645 -1.360700
414 1 7.144789 8.983481 0.446800
415 1 6.722981 10.733618 2.254300
416 1 6.288443 12.486202 4.061800
417 1 5.824425 14.250286 5.869300
418 1 10.218698 4.163266 -6.783200
419 1 9.776258 5.918849 -4.975700
420 1 9.338774 7.670584 -3.168200
421 1 8.906201 9.420075 -1.360700
422 1 8.471667 11.173748 0.446800
423 1 8.026421 12.934037 2.254300
424 1 7.576977 14.689167 4.061800
425 1 7.144789 16.436003 5.869300
426 1 11.531903 6.355123 -6.783200
427 1 11.096038 8.107207 -4.975700
428 1 10.659476 9.860252 -3.168200
429 1 10.218698 11.615788 -1.360700
430 1 9.776258 13.371370 0.446800
431 1 9.338774 15.123105 2.254300
432 1 8.906201 16.872596 4.061800
433 1 8.471667 18.626270 5.869300
434 1 12.849655 8.545892 -6.783200
435 1 12.410609 10.300168 -4.975700
436 1 11.970386 12.054560 -3.168200
437 1 11.531903 13.807645 -1.360700
438 1 11.096038 15.559728 0.446800
439 1 10.659476 17.312773 2.254300
440 1 10.218698 19.068309 4.061800
441 1 9.776258 20.823891 5.869300
442 1 14.163129 10.738799 -6.783200
443 1 13.724506 12.492262 -4.975700
444 1 13.287039 14.245166 -3.168200
445 1 12.849655 15.998414 -1.360700
446 1 12.410609 17.752690 0.446800
447 1 11.970386 19.507081 2.254300
448 1 11.531903 21.260166 4.061800
449 1 11.096038 23.012250 5.869300
450 1 15.478658 12.930230 -6.783200
451 1 15.040749 14.683587 -4.975700
452 1 14.602237 16.437363 -3.168200
453 1 14.163129 18.191320 -1.360700
454 1 13.724506 19.944783 0.446800
455 1 13.287039 21.697687 2.254300
456 1 12.849655 23.450935 4.061800
457 1 12.410609 25.205211 5.869300
458 1 16.793906 15.122172 -6.783200
459 1 16.355249 16.875890 -4.975700
460 1 15.916711 18.629450 -3.168200
461 1 15.478658 20.382751 -1.360700
462 1 15.040749 22.136108 0.446800
463 1 14.602237 23.889884 2.254300
464 1 14.163129 25.643842 4.061800
465 1 13.724506 27.397304 5.869300
466 1 18.108699 17.314182 -6.783200
467 1 17.670433 19.067635 -4.975700
468 1 17.232274 20.821084 -3.168200
469 1 16.793906 22.574693 -1.360700
470 1 16.355249 24.328412 0.446800
471 1 15.916711 26.081971 2.254300
472 1 15.478658 27.835272 4.061800
473 1 19.423972 19.505964 -6.783200
474 1 18.985630 21.259521 -4.975700
475 1 18.547159 23.013136 -3.168200
476 1 18.108699 24.766703 -1.360700
477 1 17.670433 26.520157 0.446800
478 1 17.232274 28.273605 2.254300
479 1 20.738994 21.697916 -6.783200
480 1 20.300584 23.451475 -4.975700
481 1 19.862248 25.204987 -3.168200
482 1 19.423972 26.958485 -1.360700
483 1 18.985630 28.712042 0.446800
484 1 22.054065 23.889802 -6.783200
485 1 21.615739 25.643324 -4.975700
486 1 21.177394 27.396867 -3.168200
487 1 20.738994 29.150437 -1.360700
488 1 23.369180 26.081686 -6.783200
489 1 22.930806 27.835239 -4.975700
490 1 24.684241 28.273594 -6.783200
491 2 0.877903 -16.809644 -6.783200
492 2 -0.289722 -14.624622 -3.168200
493 1 2.045527 -14.624622 -6.783200
494 2 0.877903 -13.037847 -4.975700
495 2 0.877903 -11.184205 -3.168200
496 2 0.877903 -9.357122 -1.360700
497 2 -0.289722 -7.172101 2.254300
498 1 3.111031 -12.465656 -6.783200
499 1 2.756543 -10.842984 -4.975700
500 1 2.420227 -8.966545 -3.168200
501 1 2.045527 -7.172101 -1.360700
502 2 0.877903 -5.585325 0.446800
503 2 0.877903 -3.731684 2.254300
504 2 0.877903 -1.904601 4.061800
505 2 -0.289722 0.280421 -6.783200
506 1 4.530615 -10.331361 -6.783200
507 1 4.116021 -8.580426 -4.975700
508 1 3.649412 -6.730907 -3.168200
509 1 3.111031 -5.013135 -1.360700
510 1 2.756543 -3.390462 0.446800
511 1 2.420227 -1.514024 2.254300
512 1 2.045527 0.280421 4.061800
513 2 0.877903 1.867196 5.869300
514 1 5.824425 -8.107278 -6.783200
515 1 5.372808 -6.343620 -4.975700
516 1 4.964173 -4.599370 -3.168200
517 1 4.530615 -2.878840 -1.360700
518 1 4.116021 -1.127904 0.446800
519 1 3.649412 0.721614 2.254300
520 1 3.111031 2.439387 4.061800
521 1 2.756543 4.062059 5.869300
522 1 7.144789 -5.921561 -6.783200
523 1 6.722981 -4.171425 -4.975700
524 1 6.288443 -2.418841 -3.168200
525 1 5.824425 -0.654756 -1.360700
526 1 5.372808 1.108902 0.446800
527 1 4.964173 2.853151 2.254300
528 1 4.530615 4.573681 4.061800
529 1 4.116021 6.324617 5.869300
530 1 8.471667 -3.731294 -6.783200
531 1 8.026421 -1.971006 -4.975700
532 1 7.576977 -0.215876 -3.168200
533 1 7.144789 1.530960 -1.360700
534 1 6.722981 3.281096 0.446800
535 1 6.288443 5.033681 2.254300
536 1 5.824425 6.797765 4.061800
537 1 5.372808 8.561423 5.869300
538 1 9.776258 -1.533673 -6.783200
539 1 9.338774 0.218063 -4.975700
540 1 8.906201 1.967554 -3.168200
541 1 8.471667 3.721227 -1.360700
542 1 8.026421 5.481516 0.446800
543 1 7.576977 7.236645 2.254300
544 1 7.144789 8.983481 4.061800
545 1 6.722981 10.733618 5.869300
546 1 11.096038 0.654686 -6.783200
547 1 10.659476 2.407730 -4.975700
548 1 10.218698 4.163266 -3.168200
549 1 9.776258 5.918849 -1.360700
550 1 9.338774 7.670584 0.446800
551 1 8.906201 9.420075 2.254300
552 1 8.471667 11.173748 4.061800
553 1 8.026421 12.934037 5.869300
554 1 12.410609 2.847647 -6.783200
555 1 11.970386 4.602039 -4.975700
556 1 11.531903 6.355123 -3.168200
557 1 11.096038 8.107207 -1.360700
558 1 10.659476 9.860252 0.446800
559 1 10.218698 11.615788 2.254300
560 1 9.776258 13.371370 4.061800
561 1 9.338774 15.123105 5.869300
562 1 13.724506 5.039740 -6.783200
563 1 13.287039 6.792645 -4.975700
564 1 12.849655 8.545892 -3.168200
565 1 12.410609 10.300168 -1.360700
566 1 11.970386 12.054560 0.446800
567 1 11.531903 13.807645 2.254300
568 1 11.096038 15.559728 4.061800
569 1 10.659476 17.312773 5.869300
570 1 15.040749 7.231065 -6.783200
571 1 14.602237 8.984842 -4.975700
572 1 14.163129 10.738799 -3.168200
573 1 13.724506 12.492262 -1.360700
574 1 13.287039 14.245166 0.446800
575 1 12.849655 15.998414 2.254300
576 1 12.410609 17.752690 4.061800
577 1 11.970386 19.507081 5.869300
578 1 16.355249 9.423369 -6.783200
579 1 15.916711 11.176929 -4.975700
580 1 15.478658 12.930230 -3.168200
581 1 15.040749 14.683587 -1.360700
582 1 14.602237 16.437363 0.446800
583 1 14.163129 18.191320 2.254300
584 1 13.724506 19.944783 4.061800
585 1 13.287039 21.697687 5.869300
586 1 17.670433 11.615114 -6.783200
587 1 17.232274 13.368563 -4.975700
588 1 16.793906 15.122172 -3.168200
589 1 16.355249 16.875890 -1.360700
590 1 15.916711 18.629450 0.446800
591 1 15.478658 20.382751 2.254300
592 1 15.040749 22.136108 4.061800
593 1 14.602237 23.889884 5.869300
594 1 18.985630 13.806999 -6.783200
595 1 18.547159 15.560614 -4.975700
596 1 18.108699 17.314182 -3.168200
597 1 17.670433 19.067635 -1.360700
598 1 17.232274 20.821084 0.446800
599 1 16.793906 22.574693 2.254300
600 1 16.355249 24.328412 4.061800
601 1 15.916711 26.081971 5.869300
602 1 20.300584 15.998954 -6.783200
603 1 19.862248 17.752466 -4.975700
604 1 19.423972 19.505964 -3.168200
605 1 18.985630 21.259521 -1.360700
606 1 18.547159 23.013136 0.446800
607 1 18.108699 24.766703 2.254300
608 1 17.670433 26.520157 4.061800
609 1 17.232274 28.273605 5.869300
610 1 21.615739 18.190802 -6.783200
611 1 21.177394 19.944345 -4.975700
612 1 20.738994 21.697916 -3.168200
613 1 20.300584 23.451475 -1.360700
614 1 19.862248 25.204987 0.446800
615 1 19.423972 26.958485 2.254300
616 1 18.985630 28.712042 4.061800
617 1 22.930806 20.382717 -6.783200
618 1 22.492423 22.136269 -4.975700
619 1 22.054065 23.889802 -3.168200
620 1 21.615739 25.643324 -1.360700
621 1 21.177394 27.396867 0.446800
622 1 20.738994 29.150437 2.254300
623 1 24.245879 22.574612 -6.783200
624 1 23.807531 24.328146 -4.975700
625 1 23.369180 26.081686 -3.168200
626 1 22.930806 27.835239 -1.360700
627 1 25.560977 24.766501 -6.783200
628 1 25.122612 26.520047 -4.975700
629 1 24.684241 28.273594 -3.168200
630 1 26.876052 26.958402 -6.783200
631 1 26.437689 28.711943 -4.975700
632 1 28.191138 29.150295 -6.783200
633 2 -0.289722 -22.077143 -4.975700
634 2 0.877903 -20.490368 -6.783200
635 2 0.877903 -18.636726 -4.975700
636 2 0.877903 -16.809644 -3.168200
637 2 -0.289722 -14.624622 0.446800
638 1 2.756543 -18.295505 -6.783200
639 1 2.420227 -16.419067 -4.975700
640 1 2.045527 -14.624622 -3.168200
641 2 0.877903 -13.037847 -1.360700
642 2 0.877903 -11.184205 0.446800
643 2 0.877903 -9.357122 2.254300
644 2 -0.289722 -7.172101 5.869300
645 1 4.116021 -16.032947 -6.783200
646 1 3.649412 -14.183428 -4.975700
647 1 3.111031 -12.465656 -3.168200
648 1 2.756543 -10.842984 -1.360700
649 1 2.420227 -8.966545 0.446800
650 1 2.045527 -7.172101 2.254300
651 2 0.877903 -5.585325 4.061800
652 2 0.877903 -3.731684 5.869300
653 1 5.372808 -13.796141 -6.783200
654 1 4.964173 -12.051891 -4.975700
655 1 4.530615 -10.331361 -3.168200
656 1 4.116021 -8.580426 -1.360700
657 1 3.649412 -6.730907 0.446800
658 1 3.111031 -5.013135 2.254300
659 1 2.756543 -3.390462 4.061800
660 1 2.420227 -1.514024 5.869300
661 1 6.722981 -11.623946 -6.783200
662 1 6.288443 -9.871362 -4.975700
663 1 5.824425 -8.107278 -3.168200
664 1 5.372808 -6.343620 -1.360700
665 1 4.964173 -4.599370 0.446800
666 1 4.530615 -2.878840 2.254300
667 1 4.116021 -1.127904 4.061800
668 1 3.649412 0.721614 5.869300
669 1 8.026421 -9.423527 -6.783200
670 1 7.576977 -7.668397 -4.975700
671 1 7.144789 -5.921561 -3.168200
672 1 6.722981 -4.171425 -1.360700
673 1 6.288443 -2.418841 0.446800
674 1 5.824425 -0.654756 2.254300
675 1 5.372808 1.108902 4.061800
676 1 4.964173 2.853151 5.869300
677 1 9.338774 -7.234459 -6.783200
678 1 8.906201 -5.484968 -4.975700
679 1 8.471667 -3.731294 -3.168200
680 1 8.026421 -1.971006 -1.360700
681 1 7.576977 -0.215876 0.446800
682 1 7.144789 1.530960 2.254300
683 1 6.722981 3.281096 4.061800
684 1 6.288443 5.033681 5.869300
685 1 10.659476 -5.044791 -6.783200
686 1 10.218698 -3.289255 -4.975700
687 1 9.776258 -1.533673 -3.168200
688 1 9.338774 0.218063 -1.360700
689 1 8.906201 1.967554 0.446800
690 1 8.471667 3.721227 2.254300
691 1 8.026421 5.481516 4.061800
692 1 7.576977 7.236645 5.869300
693 1 11.970386 -2.850483 -6.783200
694 1 11.531903 -1.097398 -4.975700
695 1 11.096038 0.654686 -3.168200
696 1 10.659476 2.407730 -1.360700
697 1 10.218698 4.163266 0.446800
698 1 9.776258 5.918849 2.254300
699 1 9.338774 7.670584 4.061800
700 1 8.906201 9.420075 5.869300
701 1 13.287039 -0.659877 -6.783200
702 1 12.849655 1.093371 -4.975700
703 1 12.410609 2.847647 -3.168200
704 1 11.970386 4.602039 -1.360700
705 1 11.531903 6.355123 0.446800
706 1 11.096038 8.107207 2.254300
707 1 10.659476 9.860252 4.061800
708 1 10.218698 11.615788 5.869300
709 1 14.602237 1.532320 -6.783200
710 1 14.163129 3.286278 -4.975700
711 1 13.724506 5.039740 -3.168200
712 1 13.287039 6.792645 -1.360700
713 1 12.849655 8.545892 0.446800
714 1 12.410609 10.300168 2.254300
715 1 11.970386 12.054560 4.061800
716 1 11.531903 13.807645 5.869300
717 1 15.916711 3.724408 -6.783200
718 1 15.478658 5.477708 -4.975700
719 1 15.040749 7.231065 -3.168200
720 1 14.602237 8.984842 -1.360700
721 1 14.163129 10.738799 0.446800
722 1 13.724506 12.492262 2.254300
723 1 13.287039 14.245166 4.061800
724 1 12.849655 15.998414 5.869300
725 1 17.232274 5.916041 -6.783200
726 1 16.793906 7.669651 -4.975700
727 1 16.355249 9.423369 -3.168200
728 1 15.916711 11.176929 -1.360700
729 1 15.478658 12.930230 0.446800
730 1 15.040749 14.683587 2.254300
731 1 14.602237 16.437363 4.061800
732 1 14.163129 18.191320 5.869300
733 1 18.547159 8.108093 -6.783200
734 1 18.108699 9.861660 -4.975700
735 1 17.670433 11.615114 -3.168200
736 1 17.232274 13.368563 -1.360700
737 1 16.793906 15.122172 0.446800
738 1 16.355249 16.875890 2.254300
739 1 15.916711 18.629450 4.061800
740 1 15.478658 20.382751 5.869300
741 1 19.862248 10.299945 -6.783200
742 1 19.423972 12.053442 -4.975700
743 1 18.985630 13.806999 -3.168200
744 1 18.547159 15.560614 -1.360700
745 1 18.108699 17.314182 0.446800
746 1 17.670433 19.067635 2.254300
747 1 17.232274 20.821084 4.061800
748 1 16.793906 22.574693 5.869300
749 1 21.177394 12.491824 -6.783200
750 1 20.738994 14.245395 -4.975700
751 1 20.300584 15.998954 -3.168200
752 1 19.862248 17.752466 -1.360700
753 1 19.423972 19.505964 0.446800
754 1 18.985630 21.259521 2.254300
755 1 18.547159 23.013136 4.061800
756 1 18.108699 24.766703 5.869300
757 1 22.492423 14.683747 -6.783200
758 1 22.054065 16.437280 -4.975700
759 1 21.615739 18.190802 -3.168200
760 1 21.177394 19.944345 -1.360700
761 1 20.738994 21.697916 0.446800
762 1 20.300584 23.451475 2.254300
763 1 19.862248 25.204987 4.061800
764 1 19.423972 26.958485 5.869300
765 1 23.807531 16.875624 -6.783200
766 1 23.369180 18.629164 -4.975700
767 1 22.930806 20.382717 -3.168200
768 1 22.492423 22.136269 -1.360700
769 1 22.054065 23.889802 0.446800
770 1 21.615739 25.643324 2.254300
771 1 21.177394 27.396867 4.061800
772 1 20.738994 29.150437 5.869300
773 1 25.122612 19.067526 -6.783200
774 1 24.684241 20.821072 -4.975700
775 1 24.245879 22.574612 -3.168200
776 1 23.807531 24.328146 -1.360700
777 1 23.369180 26.081686 0.446800
778 1 22.930806 27.835239 2.254300
779 1 26.437689 21.259422 -6.783200
780 1 25.999333 23.012961 -4.975700
781 1 25.560977 24.766501 -3.168200
782 1 25.122612 26.520047 -1.360700
783 1 24.684241 28.273594 0.446800
784 1 27.752779 23.451314 -6.783200
785 1 27.314417 25.204858 -4.975700
786 1 26.876052 26.958402 -3.168200
787 1 26.437689 28.711943 -1.360700
788 1 29.067859 25.643212 -6.783200
789 1 28.629497 27.396754 -4.975700
790 1 28.191138 29.150295 -3.168200
791 1 30.382943 27.835106 -6.783200
792 2 0.877903 -26.089248 -6.783200
793 2 0.877903 -24.262165 -4.975700
794 2 -0.289722 -22.077143 -1.360700
795 1 2.420227 -23.871588 -6.783200
796 1 2.045527 -22.077143 -4.975700
797 2 0.877903 -20.490368 -3.168200
798 2 0.877903 -18.636726 -1.360700
799 2 0.877903 -16.809644 0.446800
800 2 -0.289722 -14.624622 4.061800
801 1 3.649412 -21.635950 -6.783200
802 1 3.111031 -19.918177 -4.975700
803 1 2.756543 -18.295505 -3.168200
804 1 2.420227 -16.419067 -1.360700
805 1 2.045527 -14.624622 0.446800
806 2 0.877903 -13.037847 2.254300
807 2 0.877903 -11.184205 4.061800
808 2 0.877903 -9.357122 5.869300
809 1 4.964173 -19.504413 -6.783200
810 1 4.530615 -17.783883 -4.975700
811 1 4.116021 -16.032947 -3.168200
812 1 3.649412 -14.183428 -1.360700
813 1 3.111031 -12.465656 0.446800
814 1 2.756543 -10.842984 2.254300
815 1 2.420227 -8.966545 4.061800
816 1 2.045527 -7.172101 5.869300
817 1 6.288443 -17.323883 -6.783200
818 1 5.824425 -15.559799 -4.975700
819 1 5.372808 -13.796141 -3.168200
820 1 4.964173 -12.051891 -1.360700
821 1 4.530615 -10.331361 0.446800
822 1 4.116021 -8.580426 2.254300
823 1 3.649412 -6.730907 4.061800
824 1 3.111031 -5.013135 5.869300
825 1 7.576977 -15.120919 -6.783200
826 1 7.144789 -13.374083 -4.975700
827 1 6.722981 -11.623946 -3.168200
828 1 6.288443 -9.871362 -1.360700
829 1 5.824425 -8.107278 0.446800
830 1 5.372808 -6.343620 2.254300
831 1 4.964173 -4.599370 4.061800
832 1 4.530615 -2.878840 5.869300
833 1 8.906201 -12.937489 -6.783200
834 1 8.471667 -11.183816 -4.975700
835 1 8.026421 -9.423527 -3.168200
836 1 7.576977 -7.668397 -1.360700
837 1 7.144789 -5.921561 0.446800
838 1 6.722981 -4.171425 2.254300
839 1 6.288443 -2.418841 4.061800
840 1 5.824425 -0.654756 5.869300
841 1 10.218698 -10.741776 -6.783200
842 1 9.776258 -8.986194 -4.975700
843 1 9.338774 -7.234459 -3.168200
844 1 8.906201 -5.484968 -1.360700
845 1 8.471667 -3.731294 0.446800
846 1 8.026421 -1.971006 2.254300
847 1 7.576977 -0.215876 4.061800
848 1 7.144789 1.530960 5.869300
849 1 11.531903 -8.549919 -6.783200
850 1 11.096038 -6.797836 -4.975700
851 1 10.659476 -5.044791 -3.168200
852 1 10.218698 -3.289255 -1.360700
853 1 9.776258 -1.533673 0.446800
854 1 9.338774 0.218063 2.254300
855 1 8.906201 1.967554 4.061800
856 1 8.471667 3.721227 5.869300
857 1 12.849655 -6.359150 -6.783200