#LAMMPS data file
576 atoms
2 atom types
-125.1250000000 125.1250000000 xlo xhi
-29.8100853000 29.8100853000 ylo yhi
-7.2300000000 7.2300000000 zlo zhi
0.0 0.0 0.0 xy xz yz

Atoms # atomic

1 1 0.6644224459 28.2980433748 -6.7752609309
2 1 0.2897227529 22.6399669500 -6.7752609931
3 1 1.3552264405 24.7989328143 -6.7752609516
4 1 1.0007380642 26.4216052306 -4.9677609433
5 1 0.6644224413 28.2980433732 -3.1602609158
6 1 1.0007380936 18.9690838872 -6.7752609482
7 1 0.6644224440 20.8455220558 -4.9677608876
8 1 0.2897227490 22.6399669322 -3.1602609945
9 1 1.3552264430 24.7989328219 -3.1602609533
10 1 1.0007380589 26.4216052353 -1.3527609450
11 1 0.6644224387 28.2980433730 0.4547390862
12 1 0.6644224615 13.3930007379 -6.7752609082
13 1 0.2897227661 15.1874456163 -4.9677609913
14 1 1.3552264488 17.3464115094 -4.9677609539
15 1 1.0007380707 18.9690839107 -3.1602609498
16 1 0.6644224437 20.8455220563 -1.3527609088
17 1 0.2897227403 22.6399669269 0.4547390082
18 1 1.3552264440 24.7989328259 0.4547390476
19 1 1.0007380578 26.4216052379 2.2622390538
20 1 0.6644224438 28.2980433746 4.0697390682
21 1 0.2897227310 7.7349243073 -6.7752609944
22 1 1.3552264455 9.8938901842 -6.7752609563
23 1 1.0007380636 11.5165625974 -4.9677609497
24 1 0.6644224455 13.3930007336 -3.1602609225
25 1 0.2897227535 15.1874456102 -1.3527609889
26 1 1.3552264499 17.3464115104 -1.3527609484
27 1 1.0007380794 18.9690839035 0.4547390516
28 1 0.6644224546 20.8455220610 2.2622390708
29 1 0.2897227423 22.6399669374 4.0697390095
30 1 1.3552264423 24.7989328205 4.0697390484
31 1 1.0007380613 26.4216052341 5.8772390555
32 1 1.0007380653 4.0640412646 -6.7752609502
33 1 0.6644224394 5.9404794050 -4.9677609024
34 1 0.2897227277 7.7349243083 -3.1602609942
35 1 1.3552264460 9.8938901648 -3.1602609541
36 1 1.0007380565 11.5165626042 -1.3527609379
37 1 0.6644224452 13.3930007320 0.4547390559
38 1 0.2897227540 15.1874456209 2.2622390128
39 1 1.3552264483 17.3464115095 2.2622390511
40 1 1.0007380916 18.9690838918 4.0697390550
41 1 0.6644224549 20.8455220600 5.8772390742
42 1 0.6644224476 -1.5120419209 -6.7752609001
43 1 0.2897227548 0.2824029633 -4.9677609952
44 1 1.3552264437 2.4413688426 -4.9677609548
45 1 1.0007380513 4.0640412789 -3.1602609480
46 1 0.6644224407 5.9404794054 -1.3527609118
47 1 0.2897227137 7.7349242940 0.4547390077
48 1 1.3552264479 9.8938901918 0.4547390499
49 1 1.0007380772 11.5165625832 2.2622390504
50 1 0.6644224626 13.3930007404 4.0697390717
51 1 0.2897227630 15.1874456241 5.8772390088
52 1 1.3552264479 17.3464115116 5.8772390496
53 1 0.2897227270 -7.1701183774 -6.7752609952
54 1 1.3552264495 -5.0111524476 -6.7752609525
55 1 1.0007380710 -3.3884800661 -4.9677609615
56 1 0.6644224407 -1.5120419200 -3.1602609088
57 1 0.2897227474 0.2824029642 -1.3527609965
58 1 1.3552264444 2.4413688485 -1.3527609500
59 1 1.0007380635 4.0640412682 0.4547390501
60 1 0.6644224532 5.9404794114 2.2622390791
61 1 0.2897227374 7.7349243114 4.0697390070
62 1 1.3552264455 9.8938901714 4.0697390483
63 1 1.0007380848 11.5165625775 5.8772390579
64 1 1.0007380700 -10.8410013989 -6.7752609500
65 1 0.6644224363 -8.9645632526 -4.9677609012
66 1 0.2897227585 -7.1701183473 -3.1602609968
67 1 1.3552264464 -5.0111524971 -3.1602609501
68 1 1.0007380800 -3.3884800752 -1.3527609398
69 1 0.6644224463 -1.5120419211 0.4547391048
70 1 0.2897227560 0.2824029637 2.2622390040
71 1 1.3552264434 2.4413688451 2.2622390476
72 1 1.0007380689 4.0640412627 4.0697390549
73 1 0.6644224510 5.9404794094 5.8772390821
74 1 0.6644224465 -16.4170845781 -6.7752609540
75 1 0.2897227354 -14.6226396826 -4.9677609871
76 1 1.3552264422 -12.4636738069 -4.9677609496
77 1 1.0007380651 -10.8410013954 -3.1602609567
78 1 0.6644224499 -8.9645632462 -1.3527608795
79 1 0.2897227446 -7.1701183804 0.4547390012
80 1 1.3552264495 -5.0111524446 0.4547390495
81 1 1.0007380862 -3.3884800805 2.2622390373
82 1 0.6644224553 -1.5120419130 4.0697391064
83 1 0.2897227603 0.2824029597 5.8772390024
84 1 1.3552264448 2.4413688534 5.8772390474
85 1 0.2897227533 -22.0751610090 -6.7752609868
86 1 1.3552264441 -19.9161951383 -6.7752609499
87 1 1.0007380760 -18.2935227334 -4.9677609418
88 1 0.6644224477 -16.4170845782 -3.1602609284
89 1 0.2897227517 -14.6226396776 -1.3527609898
90 1 1.3552264405 -12.4636738156 -1.3527609462
91 1 1.0007380775 -10.8410014035 0.4547390471
92 1 0.6644224579 -8.9645632418 2.2622391167
93 1 0.2897227591 -7.1701183685 4.0697390043
94 1 1.3552264492 -5.0111524830 4.0697390494
95 1 1.0007380828 -3.3884800771 5.8772390576
96 1 1.0007380833 -25.7460440619 -6.7752609378
97 1 0.6644224497 -23.8696059062 -4.9677609293
98 1 0.2897227548 -22.0751610116 -3.1602609894
99 1 1.3552264444 -19.9161951352 -3.1602609517
100 1 1.0007380785 -18.2935227352 -1.3527609443
101 1 0.6644224518 -16.4170845752 0.4547390940
102 1 0.2897227485 -14.6226396964 2.2622390096
103 1 1.3552264434 -12.4636738029 2.2622390490
104 1 1.0007380636 -10.8410013909 4.0697390476
105 1 0.6644224456 -8.9645632471 5.8772390835
106 1 0.2897227417 -29.5276823337 -4.9677609906
107 1 1.3552264450 -27.3687164491 -4.9677609527
108 1 1.0007380818 -25.7460440601 -3.1602609480
109 1 0.6644224615 -23.8696058992 -1.3527609102
110 1 0.2897227603 -22.0751610257 0.4547390098
111 1 1.3552264463 -19.9161951281 0.4547390471
112 1 1.0007380713 -18.2935227268 2.2622390537
113 1 0.6644224510 -16.4170845752 4.0697390723
114 1 0.2897227325 -14.6226396986 5.8772390133
115 1 1.3552264440 -12.4636738043 5.8772390530
116 1 0.2897227386 -29.5276823355 -1.3527609915
117 1 1.3552264456 -27.3687164576 -1.3527609517
118 1 1.0007380841 -25.7460440595 0.4547390582
119 1 0.6644224682 -23.8696058968 2.2622390707
120 1 0.2897227556 -22.0751610278 4.0697390133
121 1 1.3552264463 -19.9161951317 4.0697390480
122 1 1.0007380658 -18.2935227204 5.8772390569
123 1 0.2897227285 -29.5276823493 2.2622390096
124 1 1.3552264471 -27.3687164425 2.2622390461
125 1 1.0007380778 -25.7460440532 4.0697390565
126 1 0.6644224564 -23.8696059014 5.8772390393
127 1 0.2897227440 -29.5276823334 5.8772390104
128 1 1.3552264451 -27.3687164598 5.8772390476
129 1 -2.4202267884 28.2980439905 -3.1602607351
130 1 -0.8779022566 27.9074666128 -4.9677608233
131 1 -2.4202267966 28.2980439950 0.4547392708
132 1 -0.8779016951 24.2267426671 -4.9677608457
133 1 -0.8779022915 26.0803841289 -3.1602608275
134 1 -0.8779022353 27.9074666200 -1.3527608343
135 1 -2.4202267978 28.2980439953 4.0697392766
136 1 -2.4202267806 20.8455226759 -4.9677607357
137 1 -2.0455269387 22.6399675879 -3.1602606518
138 1 -0.8779016952 24.2267426678 -1.3527608456
139 1 -0.8779022904 26.0803841256 0.4547391735
140 1 -0.8779022208 27.9074666262 2.2622391674
141 1 -2.4202267892 28.2980439910 -6.7752607325
142 1 -2.4202267969 20.8455226834 -1.3527607062
143 1 -2.0455269277 22.6399675735 0.4547393462
144 1 -0.8779016937 24.2267426678 2.2622391547
145 1 -0.8779022913 26.0803841248 4.0697391741
146 1 -0.8779022474 27.9074666188 5.8772391786
147 1 -0.8779022863 18.6278628047 -4.9677608238
148 1 -0.8779022054 20.4549453165 -3.1602608557
149 1 -2.4202267905 20.8455226808 2.2622392871
150 1 -2.0455269223 22.6399675693 4.0697393467
151 1 -0.8779016940 24.2267426676 5.8772391543
152 1 -0.8779022923 26.0803841279 -6.7752608271
153 1 -2.0455269437 15.1874462643 -4.9677606483
154 1 -0.8779016880 16.7742213490 -3.1602608460
155 1 -0.8779022840 18.6278627997 -1.3527608238
156 1 -0.8779022231 20.4549453266 0.4547391547
157 1 -2.4202267743 20.8455226738 5.8772392753
158 1 -2.0455269340 22.6399675777 -6.7752606518
159 1 -2.4202267969 13.3930013579 -3.1602607462
160 1 -2.0455269343 15.1874462677 -1.3527606506
161 1 -0.8779016881 16.7742213491 0.4547391537
162 1 -0.8779022865 18.6278627982 2.2622391752
163 1 -0.8779022621 20.4549453240 4.0697391738
164 1 -0.8779022247 13.0024239779 -4.9677608206
165 1 -2.4202267884 13.3930013568 0.4547392841
166 1 -2.0455269269 15.1874462562 2.2622393464
167 1 -0.8779016885 16.7742213490 4.0697391531
168 1 -0.8779022881 18.6278628029 5.8772391749
169 1 -0.8779022777 20.4549453124 -6.7752608363
170 1 -0.8779017049 9.3217000233 -4.9677608465
171 1 -0.8779022872 11.1753414860 -3.1602608301
172 1 -0.8779021951 13.0024239820 -1.3527608191
173 1 -2.4202267775 13.3930013502 4.0697392802
174 1 -2.0455269352 15.1874462531 5.8772393500
175 1 -0.8779016885 16.7742213489 -6.7752608466
176 1 -2.4202267883 5.9404800169 -4.9677607310
177 1 -2.0455269114 7.7349249359 -3.1602606546
178 1 -0.8779017057 9.3217000228 -1.3527608468
179 1 -0.8779022828 11.1753414870 0.4547391712
180 1 -0.8779022568 13.0024239833 2.2622391689
181 1 -2.4202267876 13.3930013558 -6.7752607491
182 1 -2.4202267948 5.9404800212 -1.3527607068
183 1 -2.0455269164 7.7349249353 0.4547393433
184 1 -0.8779017060 9.3217000235 2.2622391531
185 1 -0.8779022913 11.1753414861 4.0697391732
186 1 -0.8779022831 13.0024239798 5.8772391675
187 1 -0.8779022897 3.7228201638 -4.9677608259
188 1 -0.8779022195 5.5499026486 -3.1602608514
189 1 -2.4202267925 5.9404800196 2.2622392868
190 1 -2.0455269188 7.7349249272 4.0697393452
191 1 -0.8779017059 9.3217000235 5.8772391537
192 1 -0.8779022847 11.1753414851 -6.7752608283
193 1 -2.0455269333 0.2824036117 -4.9677606573
194 1 -0.8779016903 1.8691786967 -3.1602608470
195 1 -0.8779022868 3.7228201606 -1.3527608249
196 1 -0.8779022416 5.5499026563 0.4547391484
197 1 -2.4202267860 5.9404800170 5.8772392691
198 1 -2.0455269335 7.7349249460 -6.7752606528
199 1 -2.4202267865 -1.5120412990 -3.1602607044
200 1 -2.0455269301 0.2824036109 -1.3527606580
201 1 -0.8779016903 1.8691786974 0.4547391527
202 1 -0.8779022910 3.7228201582 2.2622391751
203 1 -0.8779022668 5.5499026508 4.0697391650
204 1 -0.8779022030 -1.9026186602 -4.9677608482
205 1 -2.4202267856 -1.5120412946 0.4547393040
206 1 -2.0455269311 0.2824036018 2.2622393405
207 1 -0.8779016904 1.8691786979 4.0697391523
208 1 -0.8779022888 3.7228201612 5.8772391738
209 1 -0.8779022573 5.5499026428 -6.7752608351
210 1 -0.8779016952 -5.5833426318 -4.9677608474
211 1 -0.8779022880 -3.7297011728 -3.1602608229
212 1 -0.8779022236 -1.9026186574 -1.3527608644
213 1 -2.4202267906 -1.5120412964 4.0697392948
214 1 -2.0455269450 0.2824036090 5.8772393439
215 1 -0.8779016907 1.8691786973 -6.7752608466
216 1 -2.4202267804 -8.9645626334 -4.9677607012
217 1 -2.0455269173 -7.1701177359 -3.1602606596
218 1 -0.8779016949 -5.5833426309 -1.3527608475
219 1 -0.8779022774 -3.7297011748 0.4547391789
220 1 -0.8779022341 -1.9026186526 2.2622391267
221 1 -2.4202267953 -1.5120412913 -6.7752607209
222 1 -2.4202267877 -8.9645626309 -1.3527606824
223 1 -2.0455269488 -7.1701177250 0.4547393414
224 1 -0.8779016942 -5.5833426299 2.2622391528
225 1 -0.8779022889 -3.7297011785 4.0697391794
226 1 -0.8779022273 -1.9026186557 5.8772391435
227 1 -0.8779022880 -11.1822224965 -4.9677608191
228 1 -0.8779022424 -9.3551400035 -3.1602608821
229 1 -2.4202268038 -8.9645626227 2.2622392909
230 1 -2.0455269228 -7.1701177446 4.0697393428
231 1 -0.8779016949 -5.5833426303 5.8772391540
232 1 -0.8779022764 -3.7297011760 -6.7752608225
233 1 -2.0455269251 -14.6226390520 -4.9677606498
234 1 -0.8779017005 -13.0358639634 -3.1602608474
235 1 -0.8779022904 -11.1822225004 -1.3527608174
236 1 -0.8779022505 -9.3551399938 0.4547391123
237 1 -2.4202267970 -8.9645626267 5.8772392834
238 1 -2.0455269332 -7.1701177158 -6.7752606577
239 1 -2.4202267746 -16.4170839676 -3.1602607332
240 1 -2.0455269349 -14.6226390542 -1.3527606500
241 1 -0.8779017007 -13.0358639613 0.4547391517
242 1 -0.8779022875 -11.1822225085 2.2622391802
243 1 -0.8779022173 -9.3551399873 4.0697391517
244 1 -0.8779022669 -16.8076613332 -4.9677608094
245 1 -2.4202267883 -16.4170839611 0.4547392661
246 1 -2.0455269427 -14.6226390536 2.2622393514
247 1 -0.8779017007 -13.0358639612 4.0697391532
248 1 -0.8779022887 -11.1822225033 5.8772391778
249 1 -0.8779022309 -9.3551399969 -6.7752608431
250 1 -0.8779016832 -20.4883852893 -4.9677608467
251 1 -0.8779022906 -18.6347438245 -3.1602608284
252 1 -0.8779022706 -16.8076613340 -1.3527608370
253 1 -2.4202268017 -16.4170839552 4.0697392583
254 1 -2.0455269210 -14.6226390590 5.8772393504
255 1 -0.8779017006 -13.0358639629 -6.7752608479
256 1 -2.4202267640 -23.8696052875 -4.9677607381
257 1 -2.0455269238 -22.0751603695 -3.1602606504
258 1 -0.8779016836 -20.4883852884 -1.3527608472
259 1 -0.8779022889 -18.6347438302 0.4547391723
260 1 -0.8779022356 -16.8076613238 2.2622391673
261 1 -2.4202267879 -16.4170839619 -6.7752607367
262 1 -2.4202267789 -23.8696052818 -1.3527607221
263 1 -2.0455269323 -22.0751603808 0.4547393508
264 1 -0.8779016837 -20.4883852868 2.2622391540
265 1 -0.8779022880 -18.6347438341 4.0697391711
266 1 -0.8779022234 -16.8076613202 5.8772391950
267 1 -0.8779022867 -26.0872651455 -4.9677608289
268 1 -0.8779022627 -24.2601826552 -3.1602608403
269 1 -2.4202267944 -23.8696052733 2.2622392536
270 1 -2.0455269256 -22.0751603798 4.0697393516
271 1 -0.8779016835 -20.4883852881 5.8772391541
272 1 -0.8779022885 -18.6347438285 -6.7752608298
273 1 -2.0455269391 -29.5276816894 -4.9677606501
274 1 -0.8779016996 -27.9409066119 -3.1602608454
275 1 -0.8779022896 -26.0872651531 -1.3527608272
276 1 -0.8779022547 -24.2601826428 0.4547391643
277 1 -2.4202267782 -23.8696052819 5.8772392498
278 1 -2.0455269229 -22.0751603698 -6.7752606486
279 1 -2.0455269264 -29.5276816963 -1.3527606504
280 1 -0.8779017004 -27.9409066105 0.4547391547
281 1 -0.8779022852 -26.0872651591 2.2622391702
282 1 -0.8779022364 -24.2601826414 4.0697392076
283 1 -2.0455269298 -29.5276816932 2.2622393488
284 1 -0.8779017003 -27.9409066106 4.0697391540
285 1 -0.8779022892 -26.0872651521 5.8772391683
286 1 -0.8779022667 -24.2601826558 -6.7752607971
287 1 -2.0455269293 -29.5276817002 5.8772393488
288 1 -0.8779017000 -27.9409066116 -6.7752608455
289 2 -0.2897222450 -29.5296645223 -6.7832002173
290 2 -0.2897222457 22.6379847528 -4.9757002172
291 2 0.8779025780 26.0784016116 -4.9757002189
292 2 0.8779025780 27.9054841284 -3.1682002189
293 2 0.8779025779 27.9054841283 0.4467997811
294 2 0.8779025768 20.4529628033 -4.9757002190
295 2 0.8779025789 -26.0892476634 -6.7832002189
296 2 -0.2897222460 22.6379847529 -1.3607002172
297 2 0.8779025769 24.2247601220 -3.1682002188
298 2 0.8779025780 26.0784016116 -1.3607002189
299 2 0.8779025780 27.9054841284 4.0617997811
300 2 0.8779025774 -27.9428891529 5.8692997811
301 2 -0.2897222467 15.1854634277 -3.1682002172
302 2 0.8779025759 16.7722387969 -4.9757002189
303 2 0.8779025769 18.6258802865 -3.1682002188
304 2 0.8779025769 20.4529628032 -1.3607002190
305 2 -0.2897222457 22.6379847528 2.2542997828
306 2 0.8779025769 24.2247601220 0.4467997812
307 2 0.8779025780 26.0784016116 2.2542997811
308 2 0.8779025779 27.9054841283 -6.7832002189
309 2 -0.2897222466 7.7329421026 -4.9757002173
310 2 0.8779025765 11.1733589613 -4.9757002189
311 2 0.8779025762 13.0004414780 -3.1682002189
312 2 0.8779025763 13.0004414781 0.4467997811
313 2 -0.2897222466 15.1854634276 0.4467997828
314 2 0.8779025759 16.7722387969 -1.3607002188
315 2 0.8779025769 18.6258802865 0.4467997812
316 2 0.8779025768 20.4529628033 2.2542997810
317 2 -0.2897222460 22.6379847529 5.8692997828
318 2 0.8779025769 24.2247601220 4.0617997812
319 2 0.8779025780 26.0784016116 5.8692997811
320 2 0.8779025767 5.5479201531 -4.9757002190
321 2 0.8779025767 5.5479201531 -1.3607002190
322 2 -0.2897222466 7.7329421026 -1.3607002173
323 2 0.8779025755 9.3197174717 -3.1682002189
324 2 0.8779025765 11.1733589613 -1.3607002189
325 2 0.8779025762 13.0004414780 4.0617997811
326 2 -0.2897222467 15.1854634277 4.0617997828
327 2 0.8779025759 16.7722387969 2.2542997811
328 2 0.8779025769 18.6258802865 4.0617997812
329 2 0.8779025769 24.2247601220 -6.7832002188
330 2 -0.2897222449 -29.5296645223 4.0617997827
331 2 -0.2897222453 0.2804207780 -3.1682002173
332 2 0.8779025769 1.8671961469 -4.9757002189
333 2 0.8779025772 3.7208376363 -3.1682002189
334 2 0.8779025767 5.5479201531 2.2542997810
335 2 -0.2897222466 7.7329421026 2.2542997827
336 2 0.8779025755 9.3197174717 0.4467997811
337 2 0.8779025765 11.1733589613 2.2542997811
338 2 0.8779025769 18.6258802865 -6.7832002188
339 2 0.8779025759 16.7722387969 5.8692997812
340 2 0.8779025769 20.4529628032 5.8692997810
341 2 -0.2897222441 -7.1721005469 -4.9757002173
342 2 0.8779025785 -3.7316836883 -4.9757002189
343 2 0.8779025780 -1.9046011715 -3.1682002190
344 2 0.8779025780 -1.9046011716 0.4467997810
345 2 -0.2897222453 0.2804207780 0.4467997827
346 2 0.8779025769 1.8671961469 -1.3607002189
347 2 0.8779025772 3.7208376363 0.4467997811
348 2 -0.2897222466 7.7329421026 5.8692997827
349 2 0.8779025765 11.1733589613 5.8692997811
350 2 0.8779025755 9.3197174717 4.0617997811
351 2 -0.2897222465 15.1854634276 -6.7832002172
352 2 0.8779025791 -9.3571224964 -4.9757002189
353 2 0.8779025791 -9.3571224964 -1.3607002189
354 2 -0.2897222440 -7.1721005469 -1.3607002173
355 2 0.8779025783 -5.5853251778 -3.1682002190
356 2 0.8779025785 -3.7316836883 -1.3607002189
357 2 -0.2897222453 0.2804207780 4.0617997827
358 2 0.8779025772 3.7208376363 4.0617997811
359 2 0.8779025769 1.8671961469 2.2542997811
360 2 0.8779025755 9.3197174717 -6.7832002189
361 2 0.8779025763 13.0004414781 -6.7832002189
362 2 0.8779025788 -24.2621651466 5.8692997810
363 2 -0.2897222439 -14.6246218721 -3.1682002174
364 2 0.8779025784 -13.0378465027 -4.9757002190
365 2 0.8779025795 -11.1842050131 -3.1682002190
366 2 0.8779025791 -9.3571224964 2.2542997811
367 2 -0.2897222440 -7.1721005469 2.2542997827
368 2 0.8779025783 -5.5853251778 0.4467997810
369 2 0.8779025785 -3.7316836883 2.2542997811
370 2 0.8779025772 3.7208376363 -6.7832002189
371 2 0.8779025769 1.8671961469 5.8692997811
372 2 0.8779025767 5.5479201531 5.8692997810
373 2 -0.2897222443 -22.0771431974 -4.9757002174
374 2 0.8779025794 -18.6367263383 -4.9757002190
375 2 0.8779025792 -16.8096438215 -3.1682002191
376 2 0.8779025791 -16.8096438214 0.4467997808
377 2 -0.2897222438 -14.6246218722 0.4467997826
378 2 0.8779025784 -13.0378465027 -1.3607002190
379 2 0.8779025795 -11.1842050131 0.4467997810
380 2 0.8779025785 -3.7316836883 5.8692997811
381 2 0.8779025783 -5.5853251778 4.0617997810
382 2 0.8779025780 -1.9046011715 4.0617997810
383 2 -0.2897222453 0.2804207780 -6.7832002173
384 2 0.8779025787 -24.2621651466 -4.9757002190
385 2 0.8779025788 -24.2621651466 -1.3607002190
386 2 -0.2897222443 -22.0771431974 -1.3607002174
387 2 0.8779025778 -20.4903678279 -3.1682002190
388 2 0.8779025794 -18.6367263383 -1.3607002190
389 2 0.8779025784 -13.0378465027 5.8692997810
390 2 0.8779025795 -11.1842050131 4.0617997810
391 2 0.8779025784 -13.0378465027 2.2542997810
392 2 -0.2897222441 -7.1721005469 5.8692997827
393 2 0.8779025780 -1.9046011715 -6.7832002190
394 2 -0.2897222449 -29.5296645223 -3.1682002173
395 2 0.8779025774 -27.9428891529 -4.9757002189
396 2 0.8779025789 -26.0892476634 -3.1682002189
397 2 0.8779025789 -26.0892476634 0.4467997811
398 2 0.8779025794 -18.6367263383 2.2542997810
399 2 0.8779025778 -20.4903678279 0.4467997810
400 2 -0.2897222438 -14.6246218722 -6.7832002174
401 2 -0.2897222439 -14.6246218721 4.0617997826
402 2 0.8779025791 -9.3571224964 5.8692997811
403 2 0.8779025783 -5.5853251778 -6.7832002190
404 2 -0.2897222450 -29.5296645223 0.4467997827
405 2 0.8779025774 -27.9428891529 -1.3607002189
406 2 -0.2897222444 -22.0771431974 5.8692997826
407 2 -0.2897222443 -22.0771431974 2.2542997826
408 2 0.8779025778 -20.4903678279 4.0617997810
409 2 0.8779025792 -16.8096438215 4.0617997809
410 2 0.8779025795 -11.1842050131 -6.7832002190
411 2 0.8779025774 -27.9428891529 2.2542997811
412 2 0.8779025787 -24.2621651466 2.2542997810
413 2 0.8779025791 -16.8096438214 -6.7832002192
414 2 0.8779025794 -18.6367263383 5.8692997810
415 2 0.8779025789 -26.0892476634 4.0617997811
416 2 0.8779025778 -20.4903678279 -6.7832002190
417 2 -2.3602161123 28.6821809339 -3.1682002171
418 2 -0.6644219586 28.2960612121 -4.9757002181
419 2 -2.3602161123 28.6821809339 0.4467997829
420 2 -1.3552260814 24.7969505857 -4.9757002172
421 2 -1.0007377150 26.4196229365 -3.1682002175
422 2 -0.6644219586 28.2960612121 -1.3607002181
423 2 -2.3602161123 28.6821809339 4.0617997829
424 2 -2.3602161132 21.2296596090 -4.9757002171
425 2 -1.8936065224 23.0791781551 -3.1682002169
426 2 -1.3552260813 24.7969505856 -1.3607002172
427 2 -1.0007377150 26.4196229365 0.4467997825
428 2 -0.6644219586 28.2960612121 2.2542997819
429 2 -2.3602161123 28.6821809339 -6.7832002171
430 2 -2.3602161132 21.2296596091 -1.3607002171
431 2 -1.8936065224 23.0791781551 0.4467997830
432 2 -1.3552260814 24.7969505857 2.2542997828
433 2 -1.0007377150 26.4196229365 4.0617997825
434 2 -0.6644219586 28.2960612121 5.8692997819
435 2 -1.0007377160 18.9671016115 -4.9757002175
436 2 -0.6644219596 20.8435398872 -3.1682002179
437 2 -2.3602161132 21.2296596090 2.2542997829
438 2 -1.8936065224 23.0791781551 4.0617997831
439 2 -1.3552260813 24.7969505856 5.8692997828
440 2 -1.0007377150 26.4196229365 -6.7832002175
441 2 -1.8936065232 15.6266568299 -4.9757002170
442 2 -1.3552260822 17.3444292605 -3.1682002171
443 2 -1.0007377160 18.9671016115 -1.3607002175
444 2 -0.6644219596 20.8435398872 0.4467997821
445 2 -2.3602161132 21.2296596091 5.8692997829
446 2 -1.8936065224 23.0791781551 -6.7832002170
447 2 -2.3602161139 13.7771382839 -3.1682002171
448 2 -1.8936065232 15.6266568299 -1.3607002170
449 2 -1.3552260822 17.3444292605 0.4467997829
450 2 -1.0007377160 18.9671016115 2.2542997825
451 2 -0.6644219596 20.8435398872 4.0617997821
452 2 -0.6644219602 13.3910185621 -4.9757002180
453 2 -2.3602161139 13.7771382838 0.4467997829
454 2 -1.8936065232 15.6266568299 2.2542997830
455 2 -1.3552260822 17.3444292605 4.0617997829
456 2 -1.0007377160 18.9671016115 5.8692997825
457 2 -0.6644219596 20.8435398872 -6.7832002179
458 2 -1.3552260826 9.8919079354 -4.9757002172
459 2 -1.0007377166 11.5145802863 -3.1682002175
460 2 -0.6644219602 13.3910185620 -1.3607002180
461 2 -2.3602161139 13.7771382839 4.0617997829
462 2 -1.8936065232 15.6266568299 5.8692997830
463 2 -1.3552260822 17.3444292605 -6.7832002171
464 2 -2.3602161137 6.3246169587 -4.9757002171
465 2 -1.8936065232 8.1741355048 -3.1682002170
466 2 -1.3552260826 9.8919079354 -1.3607002172
467 2 -1.0007377166 11.5145802863 0.4467997825
468 2 -0.6644219602 13.3910185620 2.2542997820
469 2 -2.3602161139 13.7771382838 -6.7832002171
470 2 -2.3602161137 6.3246169587 -1.3607002171
471 2 -1.8936065232 8.1741355048 0.4467997830
472 2 -1.3552260826 9.8919079354 2.2542997828
473 2 -1.0007377166 11.5145802863 4.0617997825
474 2 -0.6644219602 13.3910185620 5.8692997819
475 2 -1.0007377161 4.0620589613 -4.9757002175
476 2 -0.6644219598 5.9384972370 -3.1682002180
477 2 -2.3602161137 6.3246169587 2.2542997829
478 2 -1.8936065232 8.1741355048 4.0617997830
479 2 -1.3552260826 9.8919079354 5.8692997828
480 2 -1.0007377166 11.5145802863 -6.7832002175
481 2 -1.8936065221 0.7216141799 -4.9757002170
482 2 -1.3552260819 2.4393866105 -3.1682002171
483 2 -1.0007377160 4.0620589613 -1.3607002175
484 2 -0.6644219598 5.9384972370 0.4467997820
485 2 -2.3602161137 6.3246169587 5.8692997829
486 2 -1.8936065232 8.1741355048 -6.7832002170
487 2 -2.3602161123 -1.1279043661 -3.1682002171
488 2 -1.8936065221 0.7216141799 -1.3607002170
489 2 -1.3552260819 2.4393866104 0.4467997829
490 2 -1.0007377161 4.0620589613 2.2542997825
491 2 -0.6644219598 5.9384972370 4.0617997820
492 2 -0.6644219585 -1.5140240876 -4.9757002180
493 2 -2.3602161123 -1.1279043661 0.4467997829
494 2 -1.8936065221 0.7216141799 2.2542997830
495 2 -1.3552260819 2.4393866105 4.0617997829
496 2 -1.0007377161 4.0620589613 5.8692997825
497 2 -0.6644219598 5.9384972370 -6.7832002180
498 2 -1.3552260804 -5.0131347144 -4.9757002172
499 2 -1.0007377146 -3.3904623635 -3.1682002175
500 2 -0.6644219585 -1.5140240876 -1.3607002180
501 2 -2.3602161123 -1.1279043661 4.0617997829
502 2 -1.8936065221 0.7216141799 5.8692997830
503 2 -1.3552260819 2.4393866105 -6.7832002171
504 2 -2.3602161111 -8.5804256911 -4.9757002171
505 2 -1.8936065208 -6.7309071450 -3.1682002171
506 2 -1.3552260804 -5.0131347144 -1.3607002172
507 2 -1.0007377146 -3.3904623635 0.4467997825
508 2 -0.6644219585 -1.5140240876 2.2542997820
509 2 -2.3602161123 -1.1279043661 -6.7832002171
510 2 -2.3602161111 -8.5804256911 -1.3607002171
511 2 -1.8936065208 -6.7309071450 0.4467997829
512 2 -1.3552260804 -5.0131347144 2.2542997828
513 2 -1.0007377146 -3.3904623635 4.0617997825
514 2 -0.6644219585 -1.5140240876 5.8692997820
515 2 -1.0007377136 -10.8429836884 -4.9757002175
516 2 -0.6644219574 -8.9665454126 -3.1682002181
517 2 -2.3602161111 -8.5804256911 2.2542997829
518 2 -1.8936065208 -6.7309071450 4.0617997829
519 2 -1.3552260804 -5.0131347144 5.8692997828
520 2 -1.0007377146 -3.3904623634 -6.7832002175
521 2 -1.8936065204 -14.1834284701 -4.9757002171
522 2 -1.3552260795 -12.4656560395 -3.1682002172
523 2 -1.0007377135 -10.8429836884 -1.3607002175
524 2 -0.6644219574 -8.9665454126 0.4467997819
525 2 -2.3602161111 -8.5804256911 5.8692997829
526 2 -1.8936065208 -6.7309071450 -6.7832002171
527 2 -2.3602161110 -16.0329470162 -3.1682002172
528 2 -1.8936065204 -14.1834284701 -1.3607002172
529 2 -1.3552260795 -12.4656560394 0.4467997828
530 2 -1.0007377136 -10.8429836884 2.2542997825
531 2 -0.6644219574 -8.9665454126 4.0617997819
532 2 -0.6644219574 -16.4190667378 -4.9757002182
533 2 -2.3602161110 -16.0329470162 0.4467997828
534 2 -1.8936065204 -14.1834284701 2.2542997829
535 2 -1.3552260795 -12.4656560395 4.0617997828
536 2 -1.0007377135 -10.8429836884 5.8692997825
537 2 -0.6644219574 -8.9665454126 -6.7832002181
538 2 -1.3552260797 -19.9181773646 -4.9757002173
539 2 -1.0007377136 -18.2955050136 -3.1682002176
540 2 -0.6644219574 -16.4190667378 -1.3607002181
541 2 -2.3602161110 -16.0329470162 4.0617997828
542 2 -1.8936065204 -14.1834284701 5.8692997828
543 2 -1.3552260795 -12.4656560394 -6.7832002172
544 2 -2.3602161115 -23.4854683413 -4.9757002172
545 2 -1.8936065207 -21.6359497952 -3.1682002171
546 2 -1.3552260797 -19.9181773646 -1.3607002173
547 2 -1.0007377136 -18.2955050136 0.4467997824
548 2 -0.6644219574 -16.4190667378 2.2542997818
549 2 -2.3602161110 -16.0329470162 -6.7832002172
550 2 -2.3602161115 -23.4854683413 -1.3607002172
551 2 -1.8936065207 -21.6359497952 0.4467997828
552 2 -1.3552260797 -19.9181773645 2.2542997827
553 2 -1.0007377136 -18.2955050136 4.0617997824
554 2 -0.6644219574 -16.4190667378 5.8692997819
555 2 -1.0007377141 -25.7480263386 -4.9757002175
556 2 -0.6644219579 -23.8715880631 -3.1682002182
557 2 -2.3602161115 -23.4854683413 2.2542997828
558 2 -1.8936065207 -21.6359497952 4.0617997829
559 2 -1.3552260797 -19.9181773646 5.8692997827
560 2 -1.0007377136 -18.2955050136 -6.7832002176
561 2 -1.8936065215 -29.0884711201 -4.9757002171
562 2 -1.3552260804 -27.3706986895 -3.1682002172
563 2 -1.0007377142 -25.7480263386 -1.3607002175
564 2 -0.6644219579 -23.8715880631 0.4467997818
565 2 -2.3602161115 -23.4854683413 5.8692997828
566 2 -1.8936065207 -21.6359497952 -6.7832002172
567 2 -1.8936065215 -29.0884711201 -1.3607002170
568 2 -1.3552260804 -27.3706986895 0.4467997828
569 2 -1.0007377141 -25.7480263386 2.2542997825
570 2 -0.6644219579 -23.8715880631 4.0617997818
571 2 -1.8936065215 -29.0884711201 2.2542997829
572 2 -1.3552260804 -27.3706986895 4.0617997828
573 2 -1.0007377142 -25.7480263386 5.8692997825
574 2 -0.6644219579 -23.8715880631 -6.7832002182
575 2 -1.8936065215 -29.0884711201 5.8692997830
576 2 -1.3552260804 -27.3706986895 -6.7832002172
