# LAMMPS data file Sigma = 17, inclination = 0.000000
#LAMMPS data file
14624 atoms
2 atom types
-100.1000000000 100.1000000000 xlo xhi
-29.8100853000 29.8100853000 ylo yhi
-7.2300000000 7.2300000000 zlo zhi
0.0 0.0 0.0 xy xz yz

Atoms # atomic

1 1 0.4383823920 28.0551922868 -5.4225000000
2 1 -0.0000005978 22.3575656688 -5.4225000000
3 1 1.3151487703 24.5439702017 -5.4225000000
4 1 0.8767655812 26.2998732033 -3.6150000000
5 1 0.4383823920 28.0551922868 -1.8075000000
6 1 2.6302981385 26.7324148360 -5.4225000000
7 1 2.1919149493 28.4884115029 -3.6150000000
8 1 3.9454475066 28.9221460992 -5.4225000000
9 1 0.8767657804 18.8435235099 -5.4225000000
10 1 0.4383825913 20.6012326349 -3.6150000000
11 1 -0.0000005978 22.3575656688 -1.8075000000
12 1 2.1919151486 21.0293355016 -5.4225000000
13 1 1.7535319595 22.7872451259 -3.6150000000
14 1 1.3151487703 24.5439702017 -1.8075000000
15 1 0.8767655812 26.2998732033 0.0000000000
16 1 0.4383823920 28.0551922868 1.8075000000
17 1 3.5070645167 23.2180767085 -5.4225000000
18 1 3.0686813276 24.9757191285 -3.6150000000
19 1 2.6302981385 26.7324148360 -1.8075000000
20 1 2.1919149493 28.4884115029 0.0000000000
21 1 4.8222138849 25.4083976402 -5.4225000000
22 1 4.3838306958 27.1656437880 -3.6150000000
23 1 3.9454475066 28.9221460992 -1.8075000000
24 1 6.1373632530 27.5996073160 -5.4225000000
25 1 5.6989800639 29.3564489253 -3.6150000000
26 1 0.4383827906 13.1415339078 -5.4225000000
27 1 -0.0000003986 14.9050434149 -3.6150000000
28 1 1.7535321587 15.3196187173 -5.4225000000
29 1 1.3151489696 17.0835469951 -3.6150000000
30 1 0.8767657804 18.8435235099 -1.8075000000
31 1 0.4383825913 20.6012326349 0.0000000000
32 1 -0.0000005978 22.3575656688 1.8075000000
33 1 3.0686815269 17.5073647568 -5.4225000000
34 1 2.6302983377 19.2696756249 -3.6150000000
35 1 2.1919151486 21.0293355016 -1.8075000000
36 1 1.7535319595 22.7872451259 0.0000000000
37 1 1.3151487703 24.5439702017 1.8075000000
38 1 0.8767655812 26.2998732033 3.6150000000
39 1 0.4383823920 28.0551922868 5.4225000000
40 1 4.3838308950 19.6983909284 -5.4225000000
41 1 3.9454477059 21.4591349298 -3.6150000000
42 1 3.5070645167 23.2180767085 -1.8075000000
43 1 3.0686813276 24.9757191285 0.0000000000
44 1 2.6302981385 26.7324148360 1.8075000000
45 1 2.1919149493 28.4884115029 3.6150000000
46 1 5.6989802632 21.8907024692 -5.4225000000
47 1 5.2605970740 23.6501829141 -3.6150000000
48 1 4.8222138849 25.4083976402 -1.8075000000
49 1 4.3838306958 27.1656437880 0.0000000000
50 1 3.9454475066 28.9221460992 1.8075000000
51 1 7.0141296313 24.0835400641 -5.4225000000
52 1 6.5757464422 25.8420326430 -3.6150000000
53 1 6.1373632530 27.5996073160 -1.8075000000
54 1 5.6989800639 29.3564489253 0.0000000000
55 1 8.3292789995 26.2765785721 -5.4225000000
56 1 7.8908958103 28.0342976492 -3.6150000000
57 1 9.6444283676 28.4696691880 -5.4225000000
58 2 0.0000001993 7.8909122310 -5.4225000000
59 1 1.3151491689 9.5373850497 -5.4225000000
60 1 0.8767659797 11.3639732769 -3.6150000000
61 1 0.4383827906 13.1415339078 -1.8075000000
62 1 -0.0000003986 14.9050434149 0.0000000000
63 1 2.6302985370 11.7632719402 -5.4225000000
64 1 2.1919153479 13.5483813239 -3.6150000000
65 1 1.7535321587 15.3196187173 -1.8075000000
66 1 1.3151489696 17.0835469951 0.0000000000
67 1 0.8767657804 18.8435235099 1.8075000000
68 1 0.4383825913 20.6012326349 3.6150000000
69 1 -0.0000005978 22.3575656688 5.4225000000
70 1 3.9454479052 13.9683140649 -5.4225000000
71 1 3.5070647160 15.7409665266 -3.6150000000
72 1 3.0686815269 17.5073647568 -1.8075000000
73 1 2.6302983377 19.2696756249 0.0000000000
74 1 2.1919151486 21.0293355016 1.8075000000
75 1 1.7535319595 22.7872451259 3.6150000000
76 1 1.3151487703 24.5439702017 5.4225000000
77 1 0.8767655812 26.2998732033 7.2300000000
78 1 5.2605972733 16.1684492435 -5.4225000000
79 1 4.8222140842 17.9351396041 -3.6150000000
80 1 4.3838308950 19.6983909284 -1.8075000000
81 1 3.9454477059 21.4591349298 0.0000000000
82 1 3.5070645167 23.2180767085 1.8075000000
83 1 3.0686813276 24.9757191285 3.6150000000
84 1 2.6302981385 26.7324148360 5.4225000000
85 1 2.1919149493 28.4884115029 7.2300000000
86 1 6.5757466415 18.3663250439 -5.4225000000
87 1 6.1373634523 20.1295726268 -3.6150000000
88 1 5.6989802632 21.8907024692 -1.8075000000
89 1 5.2605970740 23.6501829141 0.0000000000
90 1 4.8222138849 25.4083976402 1.8075000000
91 1 4.3838306958 27.1656437880 3.6150000000
92 1 3.9454475066 28.9221460992 5.4225000000
93 1 7.8908960096 20.5628635167 -5.4225000000
94 1 7.4525128205 22.3239040882 -3.6150000000
95 1 7.0141296313 24.0835400641 -1.8075000000
96 1 6.5757464422 25.8420326430 0.0000000000
97 1 6.1373632530 27.5996073160 1.8075000000
98 1 5.6989800639 29.3564489253 3.6150000000
99 1 9.2060453778 22.7585074326 -5.4225000000
100 1 8.7676621886 24.5180341509 -3.6150000000
101 1 8.3292789995 26.2765785721 -1.8075000000
102 1 7.8908958103 28.0342976492 0.0000000000
103 1 10.5211947459 24.9535095611 -5.4225000000
104 1 10.0828115568 26.7119468863 -3.6150000000
105 1 9.6444283676 28.4696691880 -1.8075000000
106 1 11.8363441141 27.1480299419 -5.4225000000
107 1 11.3979609249 28.9056545238 -3.6150000000
108 1 13.1514934822 29.3421769606 -5.4225000000
109 2 1.3151495674 5.7684330668 -5.4225000000
110 2 0.8767663783 3.9818421409 -3.6150000000
111 2 0.0000001993 7.8909122310 -1.8075000000
112 1 2.1919155472 5.8275614204 -5.4225000000
113 1 1.7535323580 7.6429706293 -3.6150000000
114 1 1.3151491689 9.5373850497 -1.8075000000
115 1 0.8767659797 11.3639732769 0.0000000000
116 1 0.4383827906 13.1415339078 1.8075000000
117 1 -0.0000003986 14.9050434149 3.6150000000
118 1 3.5070649153 8.1360906334 -5.4225000000
119 1 3.0686817262 9.9560028034 -3.6150000000
120 1 2.6302985370 11.7632719402 -1.8075000000
121 1 2.1919153479 13.5483813239 0.0000000000
122 1 1.7535321587 15.3196187173 1.8075000000
123 1 1.3151489696 17.0835469951 3.6150000000
124 1 0.8767657804 18.8435235099 5.4225000000
125 1 0.4383825913 20.6012326349 7.2300000000
126 1 4.8222142835 10.3960534716 -5.4225000000
127 1 4.3838310943 12.1868470431 -3.6150000000
128 1 3.9454479052 13.9683140649 -1.8075000000
129 1 3.5070647160 15.7409665266 0.0000000000
130 1 3.0686815269 17.5073647568 1.8075000000
131 1 2.6302983377 19.2696756249 3.6150000000
132 1 2.1919151486 21.0293355016 5.4225000000
133 1 1.7535319595 22.7872451259 7.2300000000
134 1 6.1373636516 12.6210160405 -5.4225000000
135 1 5.6989804625 14.3972813188 -3.6150000000
136 1 5.2605972733 16.1684492435 -1.8075000000
137 1 4.8222140842 17.9351396041 0.0000000000
138 1 4.3838308950 19.6983909284 1.8075000000
139 1 3.9454477059 21.4591349298 3.6150000000
140 1 3.5070645167 23.2180767085 5.4225000000
141 1 3.0686813276 24.9757191285 7.2300000000
142 1 7.4525130197 14.8315982994 -5.4225000000
143 1 7.0141298306 16.6004579281 -3.6150000000
144 1 6.5757466415 18.3663250439 -1.8075000000
145 1 6.1373634523 20.1295726268 0.0000000000
146 1 5.6989802632 21.8907024692 1.8075000000
147 1 5.2605970740 23.6501829141 3.6150000000
148 1 4.8222138849 25.4083976402 5.4225000000
149 1 4.3838306958 27.1656437880 7.2300000000
150 1 8.7676623879 17.0355317886 -5.4225000000
151 1 8.3292791988 18.8001461564 -3.6150000000
152 1 7.8908960096 20.5628635167 -1.8075000000
153 1 7.4525128205 22.3239040882 0.0000000000
154 1 7.0141296313 24.0835400641 1.8075000000
155 1 6.5757464422 25.8420326430 3.6150000000
156 1 6.1373632530 27.5996073160 5.4225000000
157 1 5.6989800639 29.3564489253 7.2300000000
158 1 10.0828117560 19.2358912504 -5.4225000000
159 1 9.6444285669 20.9978381569 -3.6150000000
160 1 9.2060453778 22.7585074326 -1.8075000000
161 1 8.7676621886 24.5180341509 0.0000000000
162 1 8.3292789995 26.2765785721 1.8075000000
163 1 7.8908958103 28.0342976492 3.6150000000
164 1 11.3979611242 21.4341023792 -5.4225000000
165 1 10.9595779351 23.1942568853 -3.6150000000
166 1 10.5211947459 24.9535095611 -1.8075000000
167 1 10.0828115568 26.7119468863 0.0000000000
168 1 9.6444283676 28.4696691880 1.8075000000
169 1 12.7131104923 23.6309141838 -5.4225000000
170 1 12.2747273032 25.3898023501 -3.6150000000
171 1 11.8363441141 27.1480299419 -1.8075000000
172 1 11.3979609249 28.9056545238 0.0000000000
173 1 14.0282598605 25.8267590427 -5.4225000000
174 1 13.5898766713 27.5847172612 -3.6150000000
175 1 13.1514934822 29.3421769606 -1.8075000000
176 1 15.3434092286 28.0219050803 -5.4225000000
177 2 0.8767661790 -3.4530461642 -5.4225000000
178 2 -0.0000000000 0.4383899452 -3.6150000000
179 1 1.7535325573 0.0639114467 -5.4225000000
180 2 0.4383831891 2.2082988594 -5.4225000000
181 2 1.3151495674 5.7684330668 -1.8075000000
182 2 0.8767663783 3.9818421409 0.0000000000
183 2 0.0000001993 7.8909122310 1.8075000000
184 1 3.0686819254 2.3039806970 -5.4225000000
185 1 2.6302987363 4.0577757445 -3.6150000000
186 1 2.1919155472 5.8275614204 -1.8075000000
187 1 1.7535323580 7.6429706293 0.0000000000
188 1 1.3151491689 9.5373850497 1.8075000000
189 1 0.8767659797 11.3639732769 3.6150000000
190 1 0.4383827906 13.1415339078 5.4225000000
191 1 -0.0000003986 14.9050434149 7.2300000000
192 1 4.3838312936 4.5569663559 -5.4225000000
193 1 3.9454481044 6.3342321801 -3.6150000000
194 1 3.5070649153 8.1360906334 -1.8075000000
195 1 3.0686817262 9.9560028034 0.0000000000
196 1 2.6302985370 11.7632719402 1.8075000000
197 1 2.1919153479 13.5483813239 3.6150000000
198 1 1.7535321587 15.3196187173 5.4225000000
199 1 1.3151489696 17.0835469951 7.2300000000
200 1 5.6989806617 6.8149618618 -5.4225000000
201 1 5.2605974726 8.6019569861 -3.6150000000
202 1 4.8222142835 10.3960534716 -1.8075000000
203 1 4.3838310943 12.1868470431 0.0000000000
204 1 3.9454479052 13.9683140649 1.8075000000
205 1 3.5070647160 15.7409665266 3.6150000000
206 1 3.0686815269 17.5073647568 5.4225000000
207 1 2.6302983377 19.2696756249 7.2300000000
208 1 7.0141300299 9.0593860266 -5.4225000000
209 1 6.5757468407 10.8405841024 -3.6150000000
210 1 6.1373636516 12.6210160405 -1.8075000000
211 1 5.6989804625 14.3972813188 0.0000000000
212 1 5.2605972733 16.1684492435 1.8075000000
213 1 4.8222140842 17.9351396041 3.6150000000
214 1 4.3838308950 19.6983909284 5.4225000000
215 1 3.9454477059 21.4591349298 7.2300000000
216 1 8.3292793980 11.2861613983 -5.4225000000
217 1 7.8908962089 13.0598370866 -3.6150000000
218 1 7.4525130197 14.8315982994 -1.8075000000
219 1 7.0141298306 16.6004579281 0.0000000000
220 1 6.5757466415 18.3663250439 1.8075000000
221 1 6.1373634523 20.1295726268 3.6150000000
222 1 5.6989802632 21.8907024692 5.4225000000
223 1 5.2605970740 23.6501829141 7.2300000000
224 1 9.6444287662 13.5007700815 -5.4225000000
225 1 9.2060455770 15.2689731237 -3.6150000000
226 1 8.7676623879 17.0355317886 -1.8075000000
227 1 8.3292791988 18.8001461564 0.0000000000
228 1 7.8908960096 20.5628635167 1.8075000000
229 1 7.4525128205 22.3239040882 3.6150000000
230 1 7.0141296313 24.0835400641 5.4225000000
231 1 6.5757464422 25.8420326430 7.2300000000
232 1 10.9595781343 15.7080805744 -5.4225000000
233 1 10.5211949452 17.4726078738 -3.6150000000
234 1 10.0828117560 19.2358912504 -1.8075000000
235 1 9.6444285669 20.9978381569 0.0000000000
236 1 9.2060453778 22.7585074326 1.8075000000
237 1 8.7676621886 24.5180341509 3.6150000000
238 1 8.3292789995 26.2765785721 5.4225000000
239 1 7.8908958103 28.0342976492 7.2300000000
240 1 12.2747275025 17.9109678662 -5.4225000000
241 1 11.8363443133 19.6729976600 -3.6150000000
242 1 11.3979611242 21.4341023792 -1.8075000000
243 1 10.9595779351 23.1942568853 0.0000000000
244 1 10.5211947459 24.9535095611 1.8075000000
245 1 10.0828115568 26.7119468863 3.6150000000
246 1 9.6444283676 28.4696691880 5.4225000000
247 1 13.5898768706 20.1110486386 -5.4225000000
248 1 13.1514936815 21.8713288125 -3.6150000000
249 1 12.7131104923 23.6309141838 -1.8075000000
250 1 12.2747273032 25.3898023501 0.0000000000
251 1 11.8363441141 27.1480299419 1.8075000000
252 1 11.3979609249 28.9056545238 3.6150000000
253 1 14.9050262388 22.3092602988 -5.4225000000
254 1 14.4666430496 24.0682750490 -3.6150000000
255 1 14.0282598605 25.8267590427 -1.8075000000
256 1 13.5898766713 27.5847172612 0.0000000000
257 1 13.1514934822 29.3421769606 1.8075000000
258 1 16.2201756069 24.5061724318 -5.4225000000
259 1 15.7817924178 26.2642451432 -3.6150000000
260 1 15.3434092286 28.0219050803 -1.8075000000
261 1 17.5353249751 26.7021474445 -5.4225000000
262 1 17.0969417859 28.4595010150 -3.6150000000
263 1 18.8504743432 28.8974256063 -5.4225000000
264 1 0.0000001993 -7.4525233933 -5.4225000000
265 2 0.4383829899 -5.1943503351 -3.6150000000
266 2 1.3151493681 -1.6961457352 -3.6150000000
267 2 0.8767661790 -3.4530461642 -1.8075000000
268 2 0.0000000000 0.4383899452 0.0000000000
269 1 2.6302989356 -3.3868987416 -5.4225000000
270 1 2.1919157464 -1.6681668513 -3.6150000000
271 1 1.7535325573 0.0639114467 -1.8075000000
272 2 0.4383831891 2.2082988594 -1.8075000000
273 2 1.3151495674 5.7684330668 1.8075000000
274 2 0.8767663783 3.9818421409 3.6150000000
275 2 0.0000001993 7.8909122310 5.4225000000
276 1 3.9454483037 -1.1755118229 -5.4225000000
277 1 3.5070651146 0.5597076350 -3.6150000000
278 1 3.0686819254 2.3039806970 -1.8075000000
279 1 2.6302987363 4.0577757445 0.0000000000
280 1 2.1919155472 5.8275614204 1.8075000000
281 1 1.7535323580 7.6429706293 3.6150000000
282 1 1.3151491689 9.5373850497 5.4225000000
283 1 0.8767659797 11.3639732769 7.2300000000
284 1 5.2605976719 1.0467829650 -5.4225000000
285 1 4.8222144827 2.7962535711 -3.6150000000
286 1 4.3838312936 4.5569663559 -1.8075000000
287 1 3.9454481044 6.3342321801 0.0000000000
288 1 3.5070649153 8.1360906334 1.8075000000
289 1 3.0686817262 9.9560028034 3.6150000000
290 1 2.6302985370 11.7632719402 5.4225000000
291 1 2.1919153479 13.5483813239 7.2300000000
292 1 6.5757470400 3.2778214607 -5.4225000000
293 1 6.1373638509 5.0404549456 -3.6150000000
294 1 5.6989806617 6.8149618618 -1.8075000000
295 1 5.2605974726 8.6019569861 0.0000000000
296 1 4.8222142835 10.3960534716 1.8075000000
297 1 4.3838310943 12.1868470431 3.6150000000
298 1 3.9454479052 13.9683140649 5.4225000000
299 1 3.5070647160 15.7409665266 7.2300000000
300 1 7.8908964082 5.5119372189 -5.4225000000
301 1 7.4525132190 7.2820904704 -3.6150000000
302 1 7.0141300299 9.0593860266 -1.8075000000
303 1 6.5757468407 10.8405841024 0.0000000000
304 1 6.1373636516 12.6210160405 1.8075000000
305 1 5.6989804625 14.3972813188 3.6150000000
306 1 5.2605972733 16.1684492435 5.4225000000
307 1 4.8222140842 17.9351396041 7.2300000000
308 1 9.2060457763 7.7416171403 -5.4225000000
309 1 8.7676625872 9.5125942491 -3.6150000000
310 1 8.3292793980 11.2861613983 -1.8075000000
311 1 7.8908962089 13.0598370866 0.0000000000
312 1 7.4525130197 14.8315982994 1.8075000000
313 1 7.0141298306 16.6004579281 3.6150000000
314 1 6.5757466415 18.3663250439 5.4225000000
315 1 6.1373634523 20.1295726268 7.2300000000
316 1 10.5211951445 9.9631079225 -5.4225000000
317 1 10.0828119553 11.7317222538 -3.6150000000
318 1 9.6444287662 13.5007700815 -1.8075000000
319 1 9.2060455770 15.2689731237 0.0000000000
320 1 8.7676623879 17.0355317886 1.8075000000
321 1 8.3292791988 18.8001461564 3.6150000000
322 1 7.8908960096 20.5628635167 5.4225000000
323 1 7.4525128205 22.3239040882 7.2300000000
324 1 11.8363445126 12.1768858434 -5.4225000000
325 1 11.3979613235 13.9426365986 -3.6150000000
326 1 10.9595781343 15.7080805744 -1.8075000000
327 1 10.5211949452 17.4726078738 0.0000000000
328 1 10.0828117560 19.2358912504 1.8075000000
329 1 9.6444285669 20.9978381569 3.6150000000
330 1 9.2060453778 22.7585074326 5.4225000000
331 1 8.7676621886 24.5180341509 7.2300000000
332 1 13.1514938808 14.3848532232 -5.4225000000
333 1 12.7131106916 16.1481545531 -3.6150000000
334 1 12.2747275025 17.9109678662 -1.8075000000
335 1 11.8363443133 19.6729976600 0.0000000000
336 1 11.3979611242 21.4341023792 1.8075000000
337 1 10.9595779351 23.1942568853 3.6150000000
338 1 10.5211947459 24.9535095611 5.4225000000
339 1 10.0828115568 26.7119468863 7.2300000000
340 1 14.4666432489 16.5887453405 -5.4225000000
341 1 14.0282600598 18.3501377914 -3.6150000000
342 1 13.5898768706 20.1110486386 -1.8075000000
343 1 13.1514936815 21.8713288125 0.0000000000
344 1 12.7131104923 23.6309141838 1.8075000000
345 1 12.2747273032 25.3898023501 3.6150000000
346 1 11.8363441141 27.1480299419 5.4225000000
347 1 11.3979609249 28.9056545238 7.2300000000
348 1 15.7817926171 18.7898065892 -5.4225000000
349 1 15.3434094279 20.5497446438 -3.6150000000
350 1 14.9050262388 22.3092602988 -1.8075000000
351 1 14.4666430496 24.0682750490 0.0000000000
352 1 14.0282598605 25.8267590427 1.8075000000
353 1 13.5898766713 27.5847172612 3.6150000000
354 1 13.1514934822 29.3421769606 5.4225000000
355 1 17.0969419852 20.9888733309 -5.4225000000
356 1 16.6585587961 22.7477008414 -3.6150000000
357 1 16.2201756069 24.5061724318 -1.8075000000
358 1 15.7817924178 26.2642451432 0.0000000000
359 1 15.3434092286 28.0219050803 1.8075000000
360 1 18.4120913534 23.1865035563 -5.4225000000
361 1 17.9737081642 24.9444735393 -3.6150000000
362 1 17.5353249751 26.7021474445 -1.8075000000
363 1 17.0969417859 28.4595010150 0.0000000000
364 1 19.7272407215 25.3830746395 -5.4225000000
365 1 19.2888575324 27.1403730856 -3.6150000000
366 1 18.8504743432 28.8974256063 -1.8075000000
367 1 21.0423900897 27.5788471790 -5.4225000000
368 1 20.6040069005 29.3356120837 -3.6150000000
369 1 0.8767665776 -10.9811294078 -5.4225000000
370 1 0.4383833884 -9.2260417347 -3.6150000000
371 1 0.0000001993 -7.4525233933 -1.8075000000
372 1 2.1919159457 -8.8610908195 -5.4225000000
373 1 1.7535327566 -7.1868341254 -3.6150000000
374 2 0.4383829899 -5.1943503351 0.0000000000
375 2 1.3151493681 -1.6961457352 0.0000000000
376 2 0.8767661790 -3.4530461642 1.8075000000
377 2 0.0000000000 0.4383899452 3.6150000000
378 1 3.5070653139 -6.7648228306 -5.4225000000
379 1 3.0686821247 -5.0837720762 -3.6150000000
380 1 2.6302989356 -3.3868987416 -1.8075000000
381 1 2.1919157464 -1.6681668513 0.0000000000
382 1 1.7535325573 0.0639114467 1.8075000000
383 2 0.4383831891 2.2082988594 1.8075000000
384 2 1.3151495674 5.7684330668 5.4225000000
385 2 0.8767663783 3.9818421409 7.2300000000
386 1 4.8222146820 -4.6136134913 -5.4225000000
387 1 4.3838314929 -2.9001236364 -3.6150000000
388 1 3.9454483037 -1.1755118229 -1.8075000000
389 1 3.5070651146 0.5597076350 0.0000000000
390 1 3.0686819254 2.3039806970 1.8075000000
391 1 2.6302987363 4.0577757445 3.6150000000
392 1 2.1919155472 5.8275614204 5.4225000000
393 1 1.7535323580 7.6429706293 7.2300000000
394 1 6.1373640502 -2.4255394600 -5.4225000000
395 1 5.6989808610 -0.6935365677 -3.6150000000
396 1 5.2605976719 1.0467829650 -1.8075000000
397 1 4.8222144827 2.7962535711 0.0000000000
398 1 4.3838312936 4.5569663559 1.8075000000
399 1 3.9454481044 6.3342321801 3.6150000000
400 1 3.5070649153 8.1360906334 5.4225000000
401 1 3.0686817262 9.9560028034 7.2300000000
402 1 7.4525134183 -0.2199808621 -5.4225000000
403 1 7.0141302292 1.5249130676 -3.6150000000
404 1 6.5757470400 3.2778214607 -1.8075000000
405 1 6.1373638509 5.0404549456 0.0000000000
406 1 5.6989806617 6.8149618618 1.8075000000
407 1 5.2605974726 8.6019569861 3.6150000000
408 1 4.8222142835 10.3960534716 5.4225000000
409 1 4.3838310943 12.1868470431 7.2300000000
410 1 8.7676627865 1.9950976404 -5.4225000000
411 1 8.3292795973 3.7497882831 -3.6150000000
412 1 7.8908964082 5.5119372189 -1.8075000000
413 1 7.4525132190 7.2820904704 0.0000000000
414 1 7.0141300299 9.0593860266 1.8075000000
415 1 6.5757468407 10.8405841024 3.6150000000
416 1 6.1373636516 12.6210160405 5.4225000000
417 1 5.6989804625 14.3972813188 7.2300000000
418 1 10.0828121546 4.2142443281 -5.4225000000
419 1 9.6444289655 5.9751928591 -3.6150000000
420 1 9.2060457763 7.7416171403 -1.8075000000
421 1 8.7676625872 9.5125942491 0.0000000000
422 1 8.3292793980 11.2861613983 1.8075000000
423 1 7.8908962089 13.0598370866 3.6150000000
424 1 7.4525130197 14.8315982994 5.4225000000
425 1 7.0141298306 16.6004579281 7.2300000000
426 1 11.3979615227 6.4328199684 -5.4225000000
427 1 10.9595783336 8.1963948699 -3.6150000000
428 1 10.5211951445 9.9631079225 -1.8075000000
429 1 10.0828119553 11.7317222538 0.0000000000
430 1 9.6444287662 13.5007700815 1.8075000000
431 1 9.2060455770 15.2689731237 3.6150000000
432 1 8.7676623879 17.0355317886 5.4225000000
433 1 8.3292791988 18.8001461564 7.2300000000
434 1 12.7131108909 8.6479410585 -5.4225000000
435 1 12.2747277018 10.4116767149 -3.6150000000
436 1 11.8363445126 12.1768858434 -1.8075000000
437 1 11.3979613235 13.9426365986 0.0000000000
438 1 10.9595781343 15.7080805744 1.8075000000
439 1 10.5211949452 17.4726078738 3.6150000000
440 1 10.0828117560 19.2358912504 5.4225000000
441 1 9.6444285669 20.9978381569 7.2300000000
442 1 14.0282602590 10.8587499578 -5.4225000000
443 1 13.5898770699 12.6215233881 -3.6150000000
444 1 13.1514938808 14.3848532232 -1.8075000000
445 1 12.7131106916 16.1481545531 0.0000000000
446 1 12.2747275025 17.9109678662 1.8075000000
447 1 11.8363443133 19.6729976600 3.6150000000
448 1 11.3979611242 21.4341023792 5.4225000000
449 1 10.9595779351 23.1942568853 7.2300000000
450 1 15.3434096272 13.0656113328 -5.4225000000
451 1 14.9050264381 14.8271208245 -3.6150000000
452 1 14.4666432489 16.5887453405 -1.8075000000
453 1 14.0282600598 18.3501377914 0.0000000000
454 1 13.5898768706 20.1110486386 1.8075000000
455 1 13.1514936815 21.8713288125 3.6150000000
456 1 12.7131104923 23.6309141838 5.4225000000
457 1 12.2747273032 25.3898023501 7.2300000000
458 1 16.6585589953 15.2692855303 -5.4225000000
459 1 16.2201758062 17.0295852368 -3.6150000000
460 1 15.7817926171 18.7898065892 -1.8075000000
461 1 15.3434094279 20.5497446438 0.0000000000
462 1 14.9050262388 22.3092602988 1.8075000000
463 1 14.4666430496 24.0682750490 3.6150000000
464 1 14.0282598605 25.8267590427 5.4225000000
465 1 13.5898766713 27.5847172612 7.2300000000
466 1 17.9737083635 17.4705137935 -5.4225000000
467 1 17.5353251743 19.2297699994 -3.6150000000
468 1 17.0969419852 20.9888733309 -1.8075000000
469 1 16.6585587961 22.7477008414 0.0000000000
470 1 16.2201756069 24.5061724318 1.8075000000
471 1 15.7817924178 26.2642451432 3.6150000000
472 1 15.3434092286 28.0219050803 5.4225000000
473 1 19.2888577316 19.6698937446 -5.4225000000
474 1 18.8504745425 21.4282851227 -3.6150000000
475 1 18.4120913534 23.1865035563 -1.8075000000
476 1 17.9737081642 24.9444735393 0.0000000000
477 1 17.5353249751 26.7021474445 1.8075000000
478 1 17.0969417859 28.4595010150 3.6150000000
479 1 20.6040070998 21.8678750006 -5.4225000000
480 1 20.1656239106 23.6255594271 -3.6150000000
481 1 19.7272407215 25.3830746395 -1.8075000000
482 1 19.2888575324 27.1403730856 0.0000000000
483 1 18.8504743432 28.8974256063 1.8075000000
484 1 21.9191564679 24.0647880186 -5.4225000000
485 1 21.4807732788 25.8218955958 -3.6150000000
486 1 21.0423900897 27.5788471790 -1.8075000000
487 1 20.6040069005 29.3356120837 0.0000000000
488 1 23.2343058361 26.2608749512 -5.4225000000
489 1 22.7959226469 28.0175100223 -3.6150000000
490 1 24.5494552042 28.4563143968 -5.4225000000
491 1 0.4383835877 -16.6622380302 -5.4225000000
492 1 0.0000003986 -14.9050456228 -3.6150000000
493 1 1.7535329558 -14.4867050382 -5.4225000000
494 1 1.3151497667 -12.7341494842 -3.6150000000
495 1 0.8767665776 -10.9811294078 -1.8075000000
496 1 0.4383833884 -9.2260417347 0.0000000000
497 1 0.0000001993 -7.4525233933 1.8075000000
498 1 3.0686823240 -12.3236552967 -5.4225000000
499 1 2.6302991349 -10.5848143947 -3.6150000000
500 1 2.1919159457 -8.8610908195 -1.8075000000
501 1 1.7535327566 -7.1868341254 0.0000000000
502 2 0.4383829899 -5.1943503351 3.6150000000
503 2 1.3151493681 -1.6961457352 3.6150000000
504 2 0.8767661790 -3.4530461642 5.4225000000
505 2 0.0000000000 0.4383899452 7.2300000000
506 1 4.3838316921 -10.1763912370 -5.4225000000
507 1 3.9454485030 -8.4593025189 -3.6150000000
508 1 3.5070653139 -6.7648228306 -1.8075000000
509 1 3.0686821247 -5.0837720762 0.0000000000
510 1 2.6302989356 -3.3868987416 1.8075000000
511 1 2.1919157464 -1.6681668513 3.6150000000
512 1 1.7535325573 0.0639114467 5.4225000000
513 2 0.4383831891 2.2082988594 5.4225000000
514 1 5.6989810603 -8.0327708188 -5.4225000000
515 1 5.2605978711 -6.3211658414 -3.6150000000
516 1 4.8222146820 -4.6136134913 -1.8075000000
517 1 4.3838314929 -2.9001236364 0.0000000000
518 1 3.9454483037 -1.1755118229 1.8075000000
519 1 3.5070651146 0.5597076350 3.6150000000
520 1 3.0686819254 2.3039806970 5.4225000000
521 1 2.6302987363 4.0577757445 7.2300000000
522 1 7.0141304284 -5.8723331770 -5.4225000000
523 1 6.5757472393 -4.1506682942 -3.6150000000
524 1 6.1373640502 -2.4255394600 -1.8075000000
525 1 5.6989808610 -0.6935365677 0.0000000000
526 1 5.2605976719 1.0467829650 1.8075000000
527 1 4.8222144827 2.7962535711 3.6150000000
528 1 4.3838312936 4.5569663559 5.4225000000
529 1 3.9454481044 6.3342321801 7.2300000000
530 1 8.3292797966 -3.6914711521 -5.4225000000
531 1 7.8908966074 -1.9582248035 -3.6150000000
532 1 7.4525134183 -0.2199808621 -1.8075000000
533 1 7.0141302292 1.5249130676 0.0000000000
534 1 6.5757470400 3.2778214607 1.8075000000
535 1 6.1373638509 5.0404549456 3.6150000000
536 1 5.6989806617 6.8149618618 5.4225000000
537 1 5.2605974726 8.6019569861 7.2300000000
538 1 9.6444291647 -1.4960446796 -5.4225000000
539 1 9.2060459756 0.2468700494 -3.6150000000
540 1 8.7676627865 1.9950976404 -1.8075000000
541 1 8.3292795973 3.7497882831 0.0000000000
542 1 7.8908964082 5.5119372189 1.8075000000
543 1 7.4525132190 7.2820904704 3.6150000000
544 1 7.0141300299 9.0593860266 5.4225000000
545 1 6.5757468407 10.8405841024 7.2300000000
546 1 10.9595785329 0.7083695481 -5.4225000000
547 1 10.5211953437 2.4588031163 -3.6150000000
548 1 10.0828121546 4.2142443281 -1.8075000000
549 1 9.6444289655 5.9751928591 0.0000000000
550 1 9.2060457763 7.7416171403 1.8075000000
551 1 8.7676625872 9.5125942491 3.6150000000
552 1 8.3292793980 11.2861613983 5.4225000000
553 1 7.8908962089 13.0598370866 7.2300000000
554 1 12.2747279010 2.9174551947 -5.4225000000
555 1 11.8363447119 4.6731100833 -3.6150000000
556 1 11.3979615227 6.4328199684 -1.8075000000
557 1 10.9595783336 8.1963948699 0.0000000000
558 1 10.5211951445 9.9631079225 1.8075000000
559 1 10.0828119553 11.7317222538 3.6150000000
560 1 9.6444287662 13.5007700815 5.4225000000
561 1 9.2060455770 15.2689731237 7.2300000000
562 1 13.5898772692 5.1278514624 -5.4225000000
563 1 13.1514940800 6.8864885549 -3.6150000000
564 1 12.7131108909 8.6479410585 -1.8075000000
565 1 12.2747277018 10.4116767149 0.0000000000
566 1 11.8363445126 12.1768858434 1.8075000000
567 1 11.3979613235 13.9426365986 3.6150000000
568 1 10.9595781343 15.7080805744 5.4225000000
569 1 10.5211949452 17.4726078738 7.2300000000
570 1 14.9050266373 7.3372845616 -5.4225000000
571 1 14.4666434482 9.0971544947 -3.6150000000
572 1 14.0282602590 10.8587499578 -1.8075000000
573 1 13.5898770699 12.6215233881 0.0000000000
574 1 13.1514938808 14.3848532232 1.8075000000
575 1 12.7131106916 16.1481545531 3.6150000000
576 1 12.2747275025 17.9109678662 5.4225000000
577 1 11.8363443133 19.6729976600 7.2300000000
578 1 16.2201760055 9.5446135326 -5.4225000000
579 1 15.7817928163 11.3046322376 -3.6150000000
580 1 15.3434096272 13.0656113328 -1.8075000000
581 1 14.9050264381 14.8271208245 0.0000000000
582 1 14.4666432489 16.5887453405 1.8075000000
583 1 14.0282600598 18.3501377914 3.6150000000
584 1 13.5898768706 20.1110486386 5.4225000000
585 1 13.1514936815 21.8713288125 7.2300000000
586 1 17.5353253736 11.7495456118 -5.4225000000
587 1 17.0969421845 13.5091716367 -3.6150000000
588 1 16.6585589953 15.2692855303 -1.8075000000
589 1 16.2201758062 17.0295852368 0.0000000000
590 1 15.7817926171 18.7898065892 1.8075000000
591 1 15.3434094279 20.5497446438 3.6150000000
592 1 14.9050262388 22.3092602988 5.4225000000
593 1 14.4666430496 24.0682750490 7.2300000000
594 1 18.8504747418 13.9522448882 -5.4225000000
595 1 18.4120915526 15.7112711182 -3.6150000000
596 1 17.9737083635 17.4705137935 -1.8075000000
597 1 17.5353251743 19.2297699994 0.0000000000
598 1 17.0969419852 20.9888733309 1.8075000000
599 1 16.6585587961 22.7477008414 3.6150000000
600 1 16.2201756069 24.5061724318 5.4225000000
601 1 15.7817924178 26.2642451432 7.2300000000
602 1 20.1656241099 16.1530439788 -5.4225000000
603 1 19.7272409208 17.9114351539 -3.6150000000
604 1 19.2888577316 19.6698937446 -1.8075000000
605 1 18.8504745425 21.4282851227 0.0000000000
606 1 18.4120913534 23.1865035563 1.8075000000
607 1 17.9737081642 24.9444735393 3.6150000000
608 1 17.5353249751 26.7021474445 5.4225000000
609 1 17.0969417859 28.4595010150 7.2300000000
610 1 21.4807734781 18.3522930342 -5.4225000000
611 1 21.0423902889 20.1100896578 -3.6150000000
612 1 20.6040070998 21.8678750006 -1.8075000000
613 1 20.1656239106 23.6255594271 0.0000000000
614 1 19.7272407215 25.3830746395 1.8075000000
615 1 19.2888575324 27.1403730856 3.6150000000
616 1 18.8504743432 28.8974256063 5.4225000000
617 1 22.7959228462 20.5503001642 -5.4225000000
618 1 22.3575396571 22.3075694244 -3.6150000000
619 1 21.9191564679 24.0647880186 -1.8075000000
620 1 21.4807732788 25.8218955958 0.0000000000
621 1 21.0423900897 27.5788471790 1.8075000000
622 1 20.6040069005 29.3356120837 3.6150000000
623 1 24.1110722144 22.7473170813 -5.4225000000
624 1 23.6726890252 24.5041302274 -3.6150000000
625 1 23.2343058361 26.2608749512 -1.8075000000
626 1 22.7959226469 28.0175100223 0.0000000000
627 1 25.4262215825 24.9435427829 -5.4225000000
628 1 24.9878383934 26.6999658162 -3.6150000000
629 1 24.5494552042 28.4563143968 -1.8075000000
630 1 26.7413709507 27.1391325605 -5.4225000000
631 1 26.3029877615 28.8952231712 -3.6150000000
632 1 28.0565203188 29.3342072756 -5.4225000000
633 1 0.0000005978 -22.3575678779 -5.4225000000
634 1 1.3151499660 -20.1727553355 -5.4225000000
635 1 0.8767667768 -18.4179247988 -3.6150000000
636 1 0.4383835877 -16.6622380302 -1.8075000000
637 1 0.0000003986 -14.9050456228 0.0000000000
638 1 2.6302993341 -17.9916740414 -5.4225000000
639 1 2.1919161450 -16.2391745182 -3.6150000000