#LAMMPS data file
14624 atoms
2 atom types
-125.2250000000 125.2250000000 xlo xhi
-29.8100853000 29.8100853000 ylo yhi
-7.2300000000 7.2300000000 zlo zhi
0.0 0.0 0.0 xy xz yz

Atoms # atomic

1 1 0.664422 28.298043 -6.775261
2 1 0.289723 22.639967 -6.775261
3 1 1.355226 24.798933 -6.775261
4 1 1.000738 26.421605 -4.967761
5 1 0.664422 28.298043 -3.160261
6 1 2.774811 26.933227 -6.775261
7 1 2.360217 28.684163 -4.967761
8 1 4.068620 29.157311 -6.775261
9 1 1.000738 18.969084 -6.775261
10 1 0.664422 20.845522 -4.967761
11 1 0.289723 22.639967 -3.160261
12 1 2.360217 21.231642 -6.775261
13 1 1.893607 23.081160 -4.967761
14 1 1.355226 24.798933 -3.160261
15 1 1.000738 26.421605 -1.352761
16 1 0.664422 28.298043 0.454739
17 1 3.617003 23.468448 -6.775261
18 1 3.208368 25.212697 -4.967761
19 1 2.774811 26.933227 -3.160261
20 1 2.360217 28.684163 -1.352761
21 1 4.967176 25.640642 -6.775261
22 1 4.532638 27.393226 -4.967761
23 1 4.068620 29.157311 -3.160261
24 1 6.270617 27.841061 -6.775261
25 1 5.821172 29.596191 -4.967761
26 1 0.664422 13.393001 -6.775261
27 1 0.289723 15.187446 -4.967761
28 1 1.893607 15.628639 -6.775261
29 1 1.355226 17.346412 -4.967761
30 1 1.000738 18.969084 -3.160261
31 1 0.664422 20.845522 -1.352761
32 1 0.289723 22.639967 0.454739
33 1 3.208368 17.760176 -6.775261
34 1 2.774811 19.480706 -4.967761
35 1 2.360217 21.231642 -3.160261
36 1 1.893607 23.081160 -1.352761
37 1 1.355226 24.798933 0.454739
38 1 1.000738 26.421605 2.262239
39 1 0.664422 28.298043 4.069739
40 1 4.532638 19.940705 -6.775261
41 1 4.068620 21.704790 -4.967761
42 1 3.617003 23.468448 -3.160261
43 1 3.208368 25.212697 -1.352761
44 1 2.774811 26.933227 0.454739
45 1 2.360217 28.684163 2.262239
46 1 5.821172 22.143670 -6.775261
47 1 5.388985 23.890506 -4.967761
48 1 4.967176 25.640642 -3.160261
49 1 4.532638 27.393226 -1.352761
50 1 4.068620 29.157311 0.454739
51 1 7.150396 24.327099 -6.775261
52 1 6.715863 26.080773 -4.967761
53 1 6.270617 27.841061 -3.160261
54 1 5.821172 29.596191 -1.352761
55 1 8.462894 26.522812 -6.775261
56 1 8.020454 28.278394 -4.967761
57 1 9.776099 28.714669 -6.775261
58 1 0.289723 7.734924 -6.775261
59 1 1.355226 9.893890 -6.775261
60 1 1.000738 11.516563 -4.967761
61 1 0.664422 13.393001 -3.160261
62 1 0.289723 15.187446 -1.352761
63 1 2.774811 12.028185 -6.775261
64 1 2.360217 13.779120 -4.967761
65 1 1.893607 15.628639 -3.160261
66 1 1.355226 17.346412 -1.352761
67 1 1.000738 18.969084 0.454739
68 1 0.664422 20.845522 2.262239
69 1 0.289723 22.639967 4.069739
70 1 4.068620 14.252268 -6.775261
71 1 3.617003 16.015926 -4.967761
72 1 3.208368 17.760176 -3.160261
73 1 2.774811 19.480706 -1.352761
74 1 2.360217 21.231642 0.454739
75 1 1.893607 23.081160 2.262239
76 1 1.355226 24.798933 4.069739
77 1 1.000738 26.421605 5.877239
78 1 5.388985 16.437985 -6.775261
79 1 4.967176 18.188121 -4.967761
80 1 4.532638 19.940705 -3.160261
81 1 4.068620 21.704790 -1.352761
82 1 3.617003 23.468448 0.454739
83 1 3.208368 25.212697 2.262239
84 1 2.774811 26.933227 4.069739
85 1 2.360217 28.684163 5.877239
86 1 6.715863 18.628251 -6.775261
87 1 6.270617 20.388540 -4.967761
88 1 5.821172 22.143670 -3.160261
89 1 5.388985 23.890506 -1.352761
90 1 4.967176 25.640642 0.454739
91 1 4.532638 27.393226 2.262239
92 1 4.068620 29.157311 4.069739
93 1 8.020454 20.825873 -6.775261
94 1 7.582970 22.577608 -4.967761
95 1 7.150396 24.327099 -3.160261
96 1 6.715863 26.080773 -1.352761
97 1 6.270617 27.841061 0.454739
98 1 5.821172 29.596191 2.262239
99 1 9.340233 23.014231 -6.775261
100 1 8.903672 24.767276 -4.967761
101 1 8.462894 26.522812 -3.160261
102 1 8.020454 28.278394 -1.352761
103 1 10.654805 25.207192 -6.775261
104 1 10.214581 26.961584 -4.967761
105 1 9.776099 28.714669 -3.160261
106 1 11.968701 27.399286 -6.775261
107 1 11.531235 29.152190 -4.967761
108 1 13.284945 29.590611 -6.775261
109 1 1.000738 4.064041 -6.775261
110 1 0.664422 5.940479 -4.967761
111 1 0.289723 7.734924 -3.160261
112 1 2.360217 6.326599 -6.775261
113 1 1.893607 8.176118 -4.967761
114 1 1.355226 9.893890 -3.160261
115 1 1.000738 11.516563 -1.352761
116 1 0.664422 13.393001 0.454739
117 1 0.289723 15.187446 2.262239
118 1 3.617003 8.563405 -6.775261
119 1 3.208368 10.307655 -4.967761
120 1 2.774811 12.028185 -3.160261
121 1 2.360217 13.779120 -1.352761
122 1 1.893607 15.628639 0.454739
123 1 1.355226 17.346412 2.262239
124 1 1.000738 18.969084 4.069739
125 1 0.664422 20.845522 5.877239
126 1 4.967176 10.735600 -6.775261
127 1 4.532638 12.488184 -4.967761
128 1 4.068620 14.252268 -3.160261
129 1 3.617003 16.015926 -1.352761
130 1 3.208368 17.760176 0.454739
131 1 2.774811 19.480706 2.262239
132 1 2.360217 21.231642 4.069739
133 1 1.893607 23.081160 5.877239
134 1 6.270617 12.936019 -6.775261
135 1 5.821172 14.691149 -4.967761
136 1 5.388985 16.437985 -3.160261
137 1 4.967176 18.188121 -1.352761
138 1 4.532638 19.940705 0.454739
139 1 4.068620 21.704790 2.262239
140 1 3.617003 23.468448 4.069739
141 1 3.208368 25.212697 5.877239
142 1 7.582970 15.125087 -6.775261
143 1 7.150396 16.874578 -4.967761
144 1 6.715863 18.628251 -3.160261
145 1 6.270617 20.388540 -1.352761
146 1 5.821172 22.143670 0.454739
147 1 5.388985 23.890506 2.262239
148 1 4.967176 25.640642 4.069739
149 1 4.532638 27.393226 5.877239
150 1 8.903672 17.314755 -6.775261
151 1 8.462894 19.070291 -4.967761
152 1 8.020454 20.825873 -3.160261
153 1 7.582970 22.577608 -1.352761
154 1 7.150396 24.327099 0.454739
155 1 6.715863 26.080773 2.262239
156 1 6.270617 27.841061 4.069739
157 1 5.821172 29.596191 5.877239
158 1 10.214581 19.509063 -6.775261
159 1 9.776099 21.262147 -4.967761
160 1 9.340233 23.014231 -3.160261
161 1 8.903672 24.767276 -1.352761
162 1 8.462894 26.522812 0.454739
163 1 8.020454 28.278394 2.262239
164 1 11.531235 21.699669 -6.775261
165 1 11.093850 23.452916 -4.967761
166 1 10.654805 25.207192 -3.160261
167 1 10.214581 26.961584 -1.352761
168 1 9.776099 28.714669 0.454739
169 1 12.846433 23.891866 -6.775261
170 1 12.407325 25.645823 -4.967761
171 1 11.968701 27.399286 -3.160261
172 1 11.531235 29.152190 -1.352761
173 1 14.160907 26.083953 -6.775261
174 1 13.722854 27.837254 -4.967761
175 1 13.284945 29.590611 -3.160261
176 1 15.476470 28.275587 -6.775261
177 1 0.664422 -1.512042 -6.775261
178 1 0.289723 0.282403 -4.967761
179 1 1.893607 0.723596 -6.775261
180 1 1.355226 2.441369 -4.967761
181 1 1.000738 4.064041 -3.160261
182 1 0.664422 5.940479 -1.352761
183 1 0.289723 7.734924 0.454739
184 1 3.208368 2.855133 -6.775261
185 1 2.774811 4.575663 -4.967761
186 1 2.360217 6.326599 -3.160261
187 1 1.893607 8.176118 -1.352761
188 1 1.355226 9.893890 0.454739
189 1 1.000738 11.516563 2.262239
190 1 0.664422 13.393001 4.069739
191 1 0.289723 15.187446 5.877239
192 1 4.532638 5.035663 -6.775261
193 1 4.068620 6.799747 -4.967761
194 1 3.617003 8.563405 -3.160261
195 1 3.208368 10.307655 -1.352761
196 1 2.774811 12.028185 0.454739
197 1 2.360217 13.779120 2.262239
198 1 1.893607 15.628639 4.069739
199 1 1.355226 17.346412 5.877239
200 1 5.821172 7.238627 -6.775261
201 1 5.388985 8.985463 -4.967761
202 1 4.967176 10.735600 -3.160261
203 1 4.532638 12.488184 -1.352761
204 1 4.068620 14.252268 0.454739
205 1 3.617003 16.015926 2.262239
206 1 3.208368 17.760176 4.069739
207 1 2.774811 19.480706 5.877239
208 1 7.150396 9.422057 -6.775261
209 1 6.715863 11.175730 -4.967761
210 1 6.270617 12.936019 -3.160261
211 1 5.821172 14.691149 -1.352761
212 1 5.388985 16.437985 0.454739
213 1 4.967176 18.188121 2.262239
214 1 4.532638 19.940705 4.069739
215 1 4.068620 21.704790 5.877239
216 1 8.462894 11.617769 -6.775261
217 1 8.020454 13.373352 -4.967761
218 1 7.582970 15.125087 -3.160261
219 1 7.150396 16.874578 -1.352761
220 1 6.715863 18.628251 0.454739
221 1 6.270617 20.388540 2.262239
222 1 5.821172 22.143670 4.069739
223 1 5.388985 23.890506 5.877239
224 1 9.776099 13.809626 -6.775261
225 1 9.340233 15.561710 -4.967761
226 1 8.903672 17.314755 -3.160261
227 1 8.462894 19.070291 -1.352761
228 1 8.020454 20.825873 0.454739
229 1 7.582970 22.577608 2.262239
230 1 7.150396 24.327099 4.069739
231 1 6.715863 26.080773 5.877239
232 1 11.093850 16.000395 -6.775261
233 1 10.654805 17.754671 -4.967761
234 1 10.214581 19.509063 -3.160261
235 1 9.776099 21.262147 -1.352761
236 1 9.340233 23.014231 0.454739
237 1 8.903672 24.767276 2.262239
238 1 8.462894 26.522812 4.069739
239 1 8.020454 28.278394 5.877239
240 1 12.407325 18.193302 -6.775261
241 1 11.968701 19.946765 -4.967761
242 1 11.531235 21.699669 -3.160261
243 1 11.093850 23.452916 -1.352761
244 1 10.654805 25.207192 0.454739
245 1 10.214581 26.961584 2.262239
246 1 9.776099 28.714669 4.069739
247 1 13.722854 20.384732 -6.775261
248 1 13.284945 22.138089 -4.967761
249 1 12.846433 23.891866 -3.160261
250 1 12.407325 25.645823 -1.352761
251 1 11.968701 27.399286 0.454739
252 1 11.531235 29.152190 2.262239
253 1 15.038102 22.576675 -6.775261
254 1 14.599445 24.330393 -4.967761
255 1 14.160907 26.083953 -3.160261
256 1 13.722854 27.837254 -1.352761
257 1 13.284945 29.590611 0.454739
258 1 16.352895 24.768684 -6.775261
259 1 15.914629 26.522138 -4.967761
260 1 15.476470 28.275587 -3.160261
261 1 17.668168 26.960466 -6.775261
262 1 17.229826 28.714023 -4.967761
263 1 18.983190 29.152418 -6.775260
264 1 0.289723 -7.170118 -6.775261
265 1 1.355226 -5.011152 -6.775261
266 1 1.000738 -3.388480 -4.967761
267 1 0.664422 -1.512042 -3.160261
268 1 0.289723 0.282403 -1.352761
269 1 2.774811 -2.876858 -6.775261
270 1 2.360217 -1.125922 -4.967761
271 1 1.893607 0.723596 -3.160261
272 1 1.355226 2.441369 -1.352761
273 1 1.000738 4.064041 0.454739
274 1 0.664422 5.940479 2.262239
275 1 0.289723 7.734924 4.069739
276 1 4.068620 -0.652774 -6.775261
277 1 3.617003 1.110884 -4.967761
278 1 3.208368 2.855133 -3.160261
279 1 2.774811 4.575663 -1.352761
280 1 2.360217 6.326599 0.454739
281 1 1.893607 8.176118 2.262239
282 1 1.355226 9.893890 4.069739
283 1 1.000738 11.516563 5.877239
284 1 5.388985 1.532942 -6.775261
285 1 4.967176 3.283078 -4.967761
286 1 4.532638 5.035663 -3.160261
287 1 4.068620 6.799747 -1.352761
288 1 3.617003 8.563405 0.454739
289 1 3.208368 10.307655 2.262239
290 1 2.774811 12.028185 4.069739
291 1 2.360217 13.779120 5.877239
292 1 6.715863 3.723209 -6.775261
293 1 6.270617 5.483497 -4.967761
294 1 5.821172 7.238627 -3.160261
295 1 5.388985 8.985463 -1.352761
296 1 4.967176 10.735600 0.454739
297 1 4.532638 12.488184 2.262239
298 1 4.068620 14.252268 4.069739
299 1 3.617003 16.015926 5.877239
300 1 8.020454 5.920830 -6.775261
301 1 7.582970 7.672566 -4.967761
302 1 7.150396 9.422057 -3.160261
303 1 6.715863 11.175730 -1.352761
304 1 6.270617 12.936019 0.454739
305 1 5.821172 14.691149 2.262239
306 1 5.388985 16.437985 4.069739
307 1 4.967176 18.188121 5.877239
308 1 9.340233 8.109189 -6.775261
309 1 8.903672 9.862233 -4.967761
310 1 8.462894 11.617769 -3.160261
311 1 8.020454 13.373352 -1.352761
312 1 7.582970 15.125087 0.454739
313 1 7.150396 16.874578 2.262239
314 1 6.715863 18.628251 4.069739
315 1 6.270617 20.388540 5.877239
316 1 10.654805 10.302150 -6.775261
317 1 10.214581 12.056542 -4.967761
318 1 9.776099 13.809626 -3.160261
319 1 9.340233 15.561710 -1.352761
320 1 8.903672 17.314755 0.454739
321 1 8.462894 19.070291 2.262239
322 1 8.020454 20.825873 4.069739
323 1 7.582970 22.577608 5.877239
324 1 11.968701 12.494243 -6.775261
325 1 11.531235 14.247147 -4.967761
326 1 11.093850 16.000395 -3.160261
327 1 10.654805 17.754671 -1.352761
328 1 10.214581 19.509063 0.454739
329 1 9.776099 21.262147 2.262239
330 1 9.340233 23.014231 4.069739
331 1 8.903672 24.767276 5.877239
332 1 13.284945 14.685568 -6.775261
333 1 12.846433 16.439345 -4.967761
334 1 12.407325 18.193302 -3.160261
335 1 11.968701 19.946765 -1.352761
336 1 11.531235 21.699669 0.454739
337 1 11.093850 23.452916 2.262239
338 1 10.654805 25.207192 4.069739
339 1 10.214581 26.961584 5.877239
340 1 14.599445 16.877872 -6.775261
341 1 14.160907 18.631431 -4.967761
342 1 13.722854 20.384732 -3.160261
343 1 13.284945 22.138089 -1.352761
344 1 12.846433 23.891866 0.454739
345 1 12.407325 25.645823 2.262239
346 1 11.968701 27.399286 4.069739
347 1 11.531235 29.152190 5.877239
348 1 15.914629 19.069616 -6.775261
349 1 15.476470 20.823065 -4.967761
350 1 15.038102 22.576675 -3.160261
351 1 14.599445 24.330393 -1.352761
352 1 14.160907 26.083953 0.454739
353 1 13.722854 27.837254 2.262239
354 1 13.284945 29.590611 4.069739
355 1 17.229826 21.261502 -6.775261
356 1 16.791354 23.015117 -4.967761
357 1 16.352895 24.768684 -3.160261
358 1 15.914629 26.522138 -1.352761
359 1 15.476470 28.275587 0.454739
360 1 18.544780 23.453456 -6.775260
361 1 18.106444 25.206968 -4.967761
362 1 17.668168 26.960466 -3.160261
363 1 17.229826 28.714023 -1.352761
364 1 19.859934 25.645305 -6.775260
365 1 19.421590 27.398847 -4.967760
366 1 18.983190 29.152418 -3.160260
367 1 21.175002 27.837219 -6.775260
368 1 20.736618 29.590771 -4.967760
369 1 1.000738 -10.841001 -6.775261
370 1 0.664422 -8.964563 -4.967761
371 1 0.289723 -7.170118 -3.160261
372 1 2.360217 -8.578444 -6.775261
373 1 1.893607 -6.728925 -4.967761
374 1 1.355226 -5.011152 -3.160261
375 1 1.000738 -3.388480 -1.352761
376 1 0.664422 -1.512042 0.454739
377 1 0.289723 0.282403 2.262239
378 1 3.617003 -6.341638 -6.775261
379 1 3.208368 -4.597388 -4.967761
380 1 2.774811 -2.876858 -3.160261
381 1 2.360217 -1.125922 -1.352761
382 1 1.893607 0.723596 0.454739
383 1 1.355226 2.441369 2.262239
384 1 1.000738 4.064041 4.069739
385 1 0.664422 5.940479 5.877239
386 1 4.967176 -4.169443 -6.775261
387 1 4.532638 -2.416859 -4.967761
388 1 4.068620 -0.652774 -3.160261
389 1 3.617003 1.110884 -1.352761
390 1 3.208368 2.855133 0.454739
391 1 2.774811 4.575663 2.262239
392 1 2.360217 6.326599 4.069739
393 1 1.893607 8.176118 5.877239
394 1 6.270617 -1.969024 -6.775261
395 1 5.821172 -0.213894 -4.967761
396 1 5.388985 1.532942 -3.160261
397 1 4.967176 3.283078 -1.352761
398 1 4.532638 5.035663 0.454739
399 1 4.068620 6.799747 2.262239
400 1 3.617003 8.563405 4.069739
401 1 3.208368 10.307655 5.877239
402 1 7.582970 0.220044 -6.775261
403 1 7.150396 1.969536 -4.967761
404 1 6.715863 3.723209 -3.160261
405 1 6.270617 5.483497 -1.352761
406 1 5.821172 7.238627 0.454739
407 1 5.388985 8.985463 2.262239
408 1 4.967176 10.735600 4.069739
409 1 4.532638 12.488184 5.877239
410 1 8.903672 2.409712 -6.775261
411 1 8.462894 4.165248 -4.967761
412 1 8.020454 5.920830 -3.160261
413 1 7.582970 7.672566 -1.352761
414 1 7.150396 9.422057 0.454739
415 1 6.715863 11.175730 2.262239
416 1 6.270617 12.936019 4.069739
417 1 5.821172 14.691149 5.877239
418 1 10.214581 4.604020 -6.775261
419 1 9.776099 6.357105 -4.967761
420 1 9.340233 8.109189 -3.160261
421 1 8.903672 9.862233 -1.352761
422 1 8.462894 11.617769 0.454739
423 1 8.020454 13.373352 2.262239
424 1 7.582970 15.125087 4.069739
425 1 7.150396 16.874578 5.877239
426 1 11.531235 6.794626 -6.775261
427 1 11.093850 8.547874 -4.967761
428 1 10.654805 10.302150 -3.160261
429 1 10.214581 12.056542 -1.352761
430 1 9.776099 13.809626 0.454739
431 1 9.340233 15.561710 2.262239
432 1 8.903672 17.314755 4.069739
433 1 8.462894 19.070291 5.877239
434 1 12.846433 8.986823 -6.775261
435 1 12.407325 10.740781 -4.967761
436 1 11.968701 12.494243 -3.160261
437 1 11.531235 14.247147 -1.352761
438 1 11.093850 16.000395 0.454739
439 1 10.654805 17.754671 2.262239
440 1 10.214581 19.509063 4.069739
441 1 9.776099 21.262147 5.877239
442 1 14.160907 11.178910 -6.775261
443 1 13.722854 12.932211 -4.967761
444 1 13.284945 14.685568 -3.160261
445 1 12.846433 16.439345 -1.352761
446 1 12.407325 18.193302 0.454739
447 1 11.968701 19.946765 2.262239
448 1 11.531235 21.699669 4.069739
449 1 11.093850 23.452916 5.877239
450 1 15.476470 13.370544 -6.775261
451 1 15.038102 15.124153 -4.967761
452 1 14.599445 16.877872 -3.160261
453 1 14.160907 18.631431 -1.352761
454 1 13.722854 20.384732 0.454739
455 1 13.284945 22.138089 2.262239
456 1 12.846433 23.891866 4.069739
457 1 12.407325 25.645823 5.877239
458 1 16.791354 15.562596 -6.775261
459 1 16.352895 17.316163 -4.967761
460 1 15.914629 19.069616 -3.160261
461 1 15.476470 20.823065 -1.352761
462 1 15.038102 22.576675 0.454739
463 1 14.599445 24.330393 2.262239
464 1 14.160907 26.083953 4.069739
465 1 13.722854 27.837254 5.877239
466 1 18.106444 17.754447 -6.775261
467 1 17.668168 19.507945 -4.967761
468 1 17.229826 21.261502 -3.160261
469 1 16.791354 23.015117 -1.352761
470 1 16.352895 24.768684 0.454739
471 1 15.914629 26.522138 2.262239
472 1 15.476470 28.275587 4.069739
473 1 19.421590 19.946326 -6.775260
474 1 18.983190 21.699897 -4.967760
475 1 18.544780 23.453456 -3.160260
476 1 18.106444 25.206968 -1.352761
477 1 17.668168 26.960466 0.454739
478 1 17.229826 28.714023 2.262239
479 1 20.736618 22.138250 -6.775260
480 1 20.298261 23.891782 -4.967760
481 1 19.859934 25.645305 -3.160260
482 1 19.421590 27.398847 -1.352760
483 1 18.983190 29.152418 0.454740
484 1 22.051727 24.330126 -6.775260
485 1 21.613376 26.083667 -4.967760
486 1 21.175002 27.837219 -3.160260
487 1 20.736618 29.590771 -1.352760
488 1 23.366808 26.522028 -6.775260
489 1 22.928437 28.275574 -4.967760
490 1 24.681885 28.713924 -6.775260
491 1 0.664422 -16.417085 -6.775261
492 1 0.289723 -14.622640 -4.967761
493 1 1.893607 -14.181446 -6.775261
494 1 1.355226 -12.463674 -4.967761
495 1 1.000738 -10.841001 -3.160261
496 1 0.664422 -8.964563 -1.352761
497 1 0.289723 -7.170118 0.454739
498 1 3.208368 -12.049909 -6.775261
499 1 2.774811 -10.329379 -4.967761
500 1 2.360217 -8.578444 -3.160261
501 1 1.893607 -6.728925 -1.352761
502 1 1.355226 -5.011152 0.454739
503 1 1.000738 -3.388480 2.262239
504 1 0.664422 -1.512042 4.069739
505 1 0.289723 0.282403 5.877239
506 1 4.532638 -9.869380 -6.775261
507 1 4.068620 -8.105296 -4.967761
508 1 3.617003 -6.341638 -3.160261
509 1 3.208368 -4.597388 -1.352761
510 1 2.774811 -2.876858 0.454739
511 1 2.360217 -1.125922 2.262239
512 1 1.893607 0.723596 4.069739
513 1 1.355226 2.441369 5.877239
514 1 5.821172 -7.666415 -6.775261
515 1 5.388985 -5.919579 -4.967761
516 1 4.967176 -4.169443 -3.160261
517 1 4.532638 -2.416859 -1.352761
518 1 4.068620 -0.652774 0.454739
519 1 3.617003 1.110884 2.262239
520 1 3.208368 2.855133 4.069739
521 1 2.774811 4.575663 5.877239
522 1 7.150396 -5.482986 -6.775261
523 1 6.715863 -3.729313 -4.967761
524 1 6.270617 -1.969024 -3.160261
525 1 5.821172 -0.213894 -1.352761
526 1 5.388985 1.532942 0.454739
527 1 4.967176 3.283078 2.262239
528 1 4.532638 5.035663 4.069739
529 1 4.068620 6.799747 5.877239
530 1 8.462894 -3.287273 -6.775261
531 1 8.020454 -1.531691 -4.967761
532 1 7.582970 0.220044 -3.160261
533 1 7.150396 1.969536 -1.352761
534 1 6.715863 3.723209 0.454739
535 1 6.270617 5.483497 2.262239
536 1 5.821172 7.238627 4.069739
537 1 5.388985 8.985463 5.877239
538 1 9.776099 -1.095417 -6.775261
539 1 9.340233 0.656667 -4.967761
540 1 8.903672 2.409712 -3.160261
541 1 8.462894 4.165248 -1.352761
542 1 8.020454 5.920830 0.454739
543 1 7.582970 7.672566 2.262239
544 1 7.150396 9.422057 4.069739
545 1 6.715863 11.175730 5.877239
546 1 11.093850 1.095352 -6.775261
547 1 10.654805 2.849628 -4.967761
548 1 10.214581 4.604020 -3.160261
549 1 9.776099 6.357105 -1.352761
550 1 9.340233 8.109189 0.454739
551 1 8.903672 9.862233 2.262239
552 1 8.462894 11.617769 4.069739
553 1 8.020454 13.373352 5.877239
554 1 12.407325 3.288259 -6.775261
555 1 11.968701 5.041722 -4.967761
556 1 11.531235 6.794626 -3.160261
557 1 11.093850 8.547874 -1.352761
558 1 10.654805 10.302150 0.454739
559 1 10.214581 12.056542 2.262239
560 1 9.776099 13.809626 4.069739
561 1 9.340233 15.561710 5.877239
562 1 13.722854 5.479690 -6.775261
563 1 13.284945 7.233047 -4.967761
564 1 12.846433 8.986823 -3.160261
565 1 12.407325 10.740781 -1.352761
566 1 11.968701 12.494243 0.454739
567 1 11.531235 14.247147 2.262239
568 1 11.093850 16.000395 4.069739
569 1 10.654805 17.754671 5.877239
570 1 15.038102 7.671632 -6.775261
571 1 14.599445 9.425350 -4.967761
572 1 14.160907 11.178910 -3.160261
573 1 13.722854 12.932211 -1.352761
574 1 13.284945 14.685568 0.454739
575 1 12.846433 16.439345 2.262239
576 1 12.407325 18.193302 4.069739
577 1 11.968701 19.946765 5.877239
578 1 16.352895 9.863642 -6.775261
579 1 15.914629 11.617095 -4.967761
580 1 15.476470 13.370544 -3.160261
581 1 15.038102 15.124153 -1.352761
582 1 14.599445 16.877872 0.454739
583 1 14.160907 18.631431 2.262239
584 1 13.722854 20.384732 4.069739
585 1 13.284945 22.138089 5.877239
586 1 17.668168 12.055423 -6.775261
587 1 17.229826 13.808980 -4.967761
588 1 16.791354 15.562596 -3.160261
589 1 16.352895 17.316163 -1.352761
590 1 15.914629 19.069616 0.454739
591 1 15.476470 20.823065 2.262239
592 1 15.038102 22.576675 4.069739
593 1 14.599445 24.330393 5.877239
594 1 18.983190 14.247376 -6.775260
595 1 18.544780 16.000935 -4.967760
596 1 18.106444 17.754447 -3.160261
597 1 17.668168 19.507945 -1.352761
598 1 17.229826 21.261502 0.454739
599 1 16.791354 23.015117 2.262239
600 1 16.352895 24.768684 4.069739
601 1 15.914629 26.522138 5.877239
602 1 20.298261 16.439261 -6.775260
603 1 19.859934 18.192783 -4.967760
604 1 19.421590 19.946326 -3.160260
605 1 18.983190 21.699897 -1.352760
606 1 18.544780 23.453456 0.454740
607 1 18.106444 25.206968 2.262239
608 1 17.668168 26.960466 4.069739
609 1 17.229826 28.714023 5.877239
610 1 21.613376 18.631145 -6.775260
611 1 21.175002 20.384698 -4.967760
612 1 20.736618 22.138250 -3.160260
613 1 20.298261 23.891782 -1.352760
614 1 19.859934 25.645305 0.454740
615 1 19.421590 27.398847 2.262240
616 1 18.983190 29.152418 4.069740
617 1 22.928437 20.823053 -6.775260
618 1 22.490075 22.576593 -4.967760
619 1 22.051727 24.330126 -3.160260
620 1 21.613376 26.083667 -1.352760
621 1 21.175002 27.837219 0.454740
622 1 20.736618 29.590771 2.262240
623 1 24.243529 23.014941 -6.775260
624 1 23.805173 24.768482 -4.967760
625 1 23.366808 26.522028 -3.160260
626 1 22.928437 28.275574 -1.352760
627 1 25.558613 25.206838 -6.775260
628 1 25.120248 26.960382 -4.967760
629 1 24.681885 28.713924 -3.160260
630 1 26.873693 27.398735 -6.775260
631 1 26.435334 29.152275 -4.967760
632 1 28.188779 29.590628 -6.775260
633 1 0.289723 -22.075161 -6.775261
634 1 1.355226 -19.916195 -6.775261
635 1 1.000738 -18.293523 -4.967761
636 1 0.664422 -16.417085 -3.160261
637 1 0.289723 -14.622640 -1.352761
638 1 2.774811 -17.781901 -6.775261
639 1 2.360217 -16.030965 -4.967761
640 1 1.893607 -14.181446 -3.160261
641 1 1.355226 -12.463674 -1.352761
642 1 1.000738 -10.841001 0.454739
643 1 0.664422 -8.964563 2.262239
644 1 0.289723 -7.170118 4.069739
645 1 4.068620 -15.557817 -6.775261
646 1 3.617003 -13.794159 -4.967761
647 1 3.208368 -12.049909 -3.160261
648 1 2.774811 -10.329379 -1.352761
649 1 2.360217 -8.578444 0.454739
650 1 1.893607 -6.728925 2.262239
651 1 1.355226 -5.011152 4.069739
652 1 1.000738 -3.388480 5.877239
653 1 5.388985 -13.372101 -6.775261
654 1 4.967176 -11.621964 -4.967761
655 1 4.532638 -9.869380 -3.160261
656 1 4.068620 -8.105296 -1.352761
657 1 3.617003 -6.341638 0.454739
658 1 3.208368 -4.597388 2.262239
659 1 2.774811 -2.876858 4.069739
660 1 2.360217 -1.125922 5.877239
661 1 6.715863 -11.181834 -6.775261
662 1 6.270617 -9.421545 -4.967761
663 1 5.821172 -7.666415 -3.160261
664 1 5.388985 -5.919579 -1.352761
665 1 4.967176 -4.169443 0.454739
666 1 4.532638 -2.416859 2.262239
667 1 4.068620 -0.652774 4.069739
668 1 3.617003 1.110884 5.877239
669 1 8.020454 -8.984212 -6.775261
670 1 7.582970 -7.232477 -4.967761
671 1 7.150396 -5.482986 -3.160261
672 1 6.715863 -3.729313 -1.352761
673 1 6.270617 -1.969024 0.454739
674 1 5.821172 -0.213894 2.262239
675 1 5.388985 1.532942 4.069739
676 1 4.967176 3.283078 5.877239
677 1 9.340233 -6.795854 -6.775261
678 1 8.903672 -5.042809 -4.967761
679 1 8.462894 -3.287273 -3.160261
680 1 8.020454 -1.531691 -1.352761
681 1 7.582970 0.220044 0.454739
682 1 7.150396 1.969536 2.262239
683 1 6.715863 3.723209 4.069739
684 1 6.270617 5.483497 5.877239
685 1 10.654805 -4.602893 -6.775261
686 1 10.214581 -2.848501 -4.967761
687 1 9.776099 -1.095417 -3.160261
688 1 9.340233 0.656667 -1.352761
689 1 8.903672 2.409712 0.454739
690 1 8.462894 4.165248 2.262239
691 1 8.020454 5.920830 4.069739
692 1 7.582970 7.672566 5.877239
693 1 11.968701 -2.410799 -6.775261
694 1 11.531235 -0.657895 -4.967761
695 1 11.093850 1.095352 -3.160261
696 1 10.654805 2.849628 -1.352761
697 1 10.214581 4.604020 0.454739
698 1 9.776099 6.357105 2.262239
699 1 9.340233 8.109189 4.069739
700 1 8.903672 9.862233 5.877239
701 1 13.284945 -0.219475 -6.775261
702 1 12.846433 1.534302 -4.967761
703 1 12.407325 3.288259 -3.160261
704 1 11.968701 5.041722 -1.352761
705 1 11.531235 6.794626 0.454739
706 1 11.093850 8.547874 2.262239
707 1 10.654805 10.302150 4.069739
708 1 10.214581 12.056542 5.877239
709 1 14.599445 1.972829 -6.775261
710 1 14.160907 3.726389 -4.967761
711 1 13.722854 5.479690 -3.160261
712 1 13.284945 7.233047 -1.352761
713 1 12.846433 8.986823 0.454739
714 1 12.407325 10.740781 2.262239
715 1 11.968701 12.494243 4.069739
716 1 11.531235 14.247147 5.877239
717 1 15.914629 4.164574 -6.775261
718 1 15.476470 5.918023 -4.967761
719 1 15.038102 7.671632 -3.160261
720 1 14.599445 9.425350 -1.352761
721 1 14.160907 11.178910 0.454739
722 1 13.722854 12.932211 2.262239
723 1 13.284945 14.685568 4.069739
724 1 12.846433 16.439345 5.877239
725 1 17.229826 6.356459 -6.775261
726 1 16.791354 8.110074 -4.967761
727 1 16.352895 9.863642 -3.160261
728 1 15.914629 11.617095 -1.352761
729 1 15.476470 13.370544 0.454739
730 1 15.038102 15.124153 2.262239
731 1 14.599445 16.877872 4.069739
732 1 14.160907 18.631431 5.877239
733 1 18.544780 8.548414 -6.775260
734 1 18.106444 10.301926 -4.967761
735 1 17.668168 12.055423 -3.160261
736 1 17.229826 13.808980 -1.352761
737 1 16.791354 15.562596 0.454739
738 1 16.352895 17.316163 2.262239
739 1 15.914629 19.069616 4.069739
740 1 15.476470 20.823065 5.877239
741 1 19.859934 10.740262 -6.775260
742 1 19.421590 12.493805 -4.967760
743 1 18.983190 14.247376 -3.160260
744 1 18.544780 16.000935 -1.352760
745 1 18.106444 17.754447 0.454739
746 1 17.668168 19.507945 2.262239
747 1 17.229826 21.261502 4.069739
748 1 16.791354 23.015117 5.877239
749 1 21.175002 12.932177 -6.775260
750 1 20.736618 14.685728 -4.967760
751 1 20.298261 16.439261 -3.160260
752 1 19.859934 18.192783 -1.352760
753 1 19.421590 19.946326 0.454740
754 1 18.983190 21.699897 2.262240
755 1 18.544780 23.453456 4.069740
756 1 18.106444 25.206968 5.877239
757 1 22.490075 15.124071 -6.775260
758 1 22.051727 16.877605 -4.967760
759 1 21.613376 18.631145 -3.160260
760 1 21.175002 20.384698 -1.352760
761 1 20.736618 22.138250 0.454740
762 1 20.298261 23.891782 2.262240
763 1 19.859934 25.645305 4.069740
764 1 19.421590 27.398847 5.877240
765 1 23.805173 17.315961 -6.775260
766 1 23.366808 19.069506 -4.967760
767 1 22.928437 20.823053 -3.160260
768 1 22.490075 22.576593 -1.352760
769 1 22.051727 24.330126 0.454740
770 1 21.613376 26.083667 2.262240
771 1 21.175002 27.837219 4.069740
772 1 20.736618 29.590771 5.877240
773 1 25.120248 19.507861 -6.775260
774 1 24.681885 21.261403 -4.967760
775 1 24.243529 23.014941 -3.160260
776 1 23.805173 24.768482 -1.352760
777 1 23.366808 26.522028 0.454740
778 1 22.928437 28.275574 2.262240
779 1 26.435334 21.699754 -6.775260
780 1 25.996975 23.453295 -4.967760
781 1 25.558613 25.206838 -3.160260
782 1 25.120248 26.960382 -1.352760
783 1 24.681885 28.713924 0.454740
784 1 27.750418 23.891649 -6.775260
785 1 27.312055 25.645192 -4.967760
786 1 26.873693 27.398735 -3.160260
787 1 26.435334 29.152275 -1.352760
788 1 29.065500 26.083545 -6.775260
789 1 28.627139 27.837087 -4.967760
790 1 28.188779 29.590628 -3.160260
791 1 30.380585 28.275440 -6.775260
792 1 1.000738 -25.746044 -6.775261
793 1 0.664422 -23.869606 -4.967761
794 1 0.289723 -22.075161 -3.160261
795 1 2.360217 -23.483486 -6.775261
796 1 1.893607 -21.633968 -4.967761
797 1 1.355226 -19.916195 -3.160261
798 1 1.000738 -18.293523 -1.352761
799 1 0.664422 -16.417085 0.454739
800 1 0.289723 -14.622640 2.262239
801 1 3.617003 -21.246680 -6.775261
802 1 3.208368 -19.502431 -4.967761
803 1 2.774811 -17.781901 -3.160261
804 1 2.360217 -16.030965 -1.352761
805 1 1.893607 -14.181446 0.454739
806 1 1.355226 -12.463674 2.262239
807 1 1.000738 -10.841001 4.069739
808 1 0.664422 -8.964563 5.877239
809 1 4.967176 -19.074486 -6.775261
810 1 4.532638 -17.321901 -4.967761
811 1 4.068620 -15.557817 -3.160261
812 1 3.617003 -13.794159 -1.352761
813 1 3.208368 -12.049909 0.454739
814 1 2.774811 -10.329379 2.262239
815 1 2.360217 -8.578444 4.069739
816 1 1.893607 -6.728925 5.877239
817 1 6.270617 -16.874067 -6.775261
818 1 5.821172 -15.118937 -4.967761
819 1 5.388985 -13.372101 -3.160261
820 1 4.967176 -11.621964 -1.352761
821 1 4.532638 -9.869380 0.454739
822 1 4.068620 -8.105296 2.262239
823 1 3.617003 -6.341638 4.069739
824 1 3.208368 -4.597388 5.877239
825 1 7.582970 -14.684998 -6.775261
826 1 7.150396 -12.935507 -4.967761
827 1 6.715863 -11.181834 -3.160261
828 1 6.270617 -9.421545 -1.352761
829 1 5.821172 -7.666415 0.454739
830 1 5.388985 -5.919579 2.262239
831 1 4.967176 -4.169443 4.069739
832 1 4.532638 -2.416859 5.877239
833 1 8.903672 -12.495331 -6.775261
834 1 8.462894 -10.739795 -4.967761
835 1 8.020454 -8.984212 -3.160261
836 1 7.582970 -7.232477 -1.352761
837 1 7.150396 -5.482986 0.454739
838 1 6.715863 -3.729313 2.262239
839 1 6.270617 -1.969024 4.069739
840 1 5.821172 -0.213894 5.877239
841 1 10.214581 -10.301022 -6.775261
842 1 9.776099 -8.547938 -4.967761
843 1 9.340233 -6.795854 -3.160261
844 1 8.903672 -5.042809 -1.352761
845 1 8.462894 -3.287273 0.454739
846 1 8.020454 -1.531691 2.262239
847 1 7.582970 0.220044 4.069739
848 1 7.150396 1.969536 5.877239
849 1 11.531235 -8.110417 -6.775261
850 1 11.093850 -6.357169 -4.967761
851 1 10.654805 -4.602893 -3.160261
852 1 10.214581 -2.848501 -1.352761
853 1 9.776099 -1.095417 0.454739
854 1 9.340233 0.656667 2.262239
855 1 8.903672 2.409712 4.069739
856 1 8.462894 4.165248 5.877239
857 1 12.846433 -5.918219 -6.775261
858 1 12.407325 -4.164262 -4.967761