LAMMPS data file via write_data, version 29 Aug 2024, timestep = 551, units = metal

14624 atoms
2 atom types

-100.1 100.1 xlo xhi
-29.8100853 29.8100853 ylo yhi
-7.23 7.23 zlo zhi
0 0 0 xy xz yz

Masses

1 63.55
2 63.55

Atoms # atomic

1 1 0.6860702741768421 28.150436865897472 -6.781703194788723 0 0 0
2 2 -0.3279098225129218 22.606686184661836 -4.974201322657717 0 0 0
3 1 0.8302123856300057 24.241749875897273 -6.781703594852295 0 0 0
4 1 0.8353201707505207 26.126347693568174 -4.974203596679401 0 0 0
5 1 0.6860702649873787 28.15043686020105 -3.1667031595023265 0 0 0
6 1 2.611156410629661 26.55839565892403 -6.7817048453962725 0 0 0
7 1 2.323316597338888 28.394694560715475 -4.974204357655682 0 0 0
8 1 4.008970034894375 28.809607829773594 -6.781705408126174 0 0 0
9 2 0.8581080909307843 20.460044757536988 -4.9742031980538375 0 0 0
10 2 0.8662698964291735 18.631654048752363 -3.1667032694080874 0 0 0
11 2 -0.3279101252588532 22.60668633821714 -1.3592013251498174 0 0 0
12 1 2.385279238542836 20.89376968525003 -6.781704332041788 0 0 0
13 1 2.004726186791828 22.69029562962636 -4.974205111940144 0 0 0
14 1 0.8302123832002763 24.24174987894617 -3.1667036035662535 0 0 0
15 1 0.8353201722745638 26.126347696359918 -1.3592035972359926 0 0 0
16 1 0.6860702771880653 28.15043686170142 0.4482967943076478 0 0 0
17 1 3.593865887620609 23.15033622910389 -6.781705519086357 0 0 0
18 1 3.039055568681391 24.886206694981563 -4.974205388717402 0 0 0
19 1 2.6111564109492633 26.55839565741074 -3.166704859426187 0 0 0
20 1 2.323316589765355 28.394694553597216 -1.3592043573555797 0 0 0
21 1 4.859640060774993 25.31340642697759 -6.781706219847372 0 0 0
22 1 4.431425141660398 27.03723419221401 -4.974205982493796 0 0 0
23 1 4.008970037179097 28.80960783092328 -3.1667054127155296 0 0 0
24 1 6.201973932850194 27.48347292710967 -6.781707025187569 0 0 0
25 1 5.772065905714882 29.2336689469109 -4.974206680811289 0 0 0
26 2 0.8736898915802982 11.178088118434939 -4.974203442526487 0 0 0
27 2 -0.30785499456335685 15.170512264119065 -3.1667011527479922 0 0 0
28 1 2.026982072472464 15.210887196877476 -6.781705302678824 0 0 0
29 2 0.8447971217220953 16.776964703677354 -4.97420331691446 0 0 0
30 2 0.8581083018231794 20.460044624493587 -1.3592031932435302 0 0 0
31 2 0.8662698937009168 18.631654046917273 0.44829670723781784 0 0 0
32 2 -0.32790986277717593 22.606686200449186 2.2557986774667147 0 0 0
33 1 3.097821665803366 17.373421750211175 -6.781705478362273 0 0 0
34 1 2.7431412934359543 19.000059377603836 -4.974205069360703 0 0 0
35 1 2.385279234882617 20.893769685772906 -3.16670424192744 0 0 0
36 1 2.0047264637574216 22.69029567549708 -1.3592051110067875 0 0 0
37 1 0.8302123849139065 24.24174987712527 0.448296406392566 0 0 0
38 1 0.835320167977855 26.12634769410401 2.255796401528156 0 0 0
39 1 0.6860702754701435 28.150436858824154 4.063296853936349 0 0 0
40 1 4.499432970407838 19.52994081004074 -6.781706001741824 0 0 0
41 1 4.074920020493536 21.28830141131002 -4.974205457560082 0 0 0
42 1 3.593865878984076 23.150336227172918 -3.1667054317763164 0 0 0
43 1 3.0390555589244457 24.88620662339461 -1.3592053880305175 0 0 0
44 1 2.6111564090531516 26.558395662287463 0.4482951546201627 0 0 0
45 1 2.323316599872996 28.394694561122517 2.2557956428099573 0 0 0
46 1 5.7708504799164615 21.77313569040511 -6.78170653098436 0 0 0
47 1 5.302165030503616 23.549968776361286 -4.974206356460753 0 0 0
48 1 4.859640063080207 25.313406427291067 -3.1667062236498964 0 0 0
49 1 4.431425153738587 27.037234200345463 -1.3592059842261428 0 0 0
50 1 4.008970034869478 28.80960782870694 0.44829459171223246 0 0 0
51 1 7.062996524887424 23.97638594849357 -6.7817075142320205 0 0 0
52 1 6.633250498106705 25.729722929498127 -4.974207345461853 0 0 0
53 1 6.201973933094024 27.4834729266376 -3.1667070243864175 0 0 0
54 1 5.772065904001735 29.233668945889004 -1.3592066803876637 0 0 0
55 1 8.39872725049156 26.15796813781972 -6.7817084752723265 0 0 0
56 1 7.971335931237974 27.908712570117256 -4.9742082189776715 0 0 0
57 1 9.743675307358671 28.334050856868654 -6.781709415343635 0 0 0
58 2 -0.29911598520452287 7.724292496064624 -4.9742014662780605 0 0 0
59 2 0.8575224544784419 9.324503450630534 -3.1667033720195805 0 0 0
60 2 0.868942850150134 13.005180474740886 -3.166703345853979 0 0 0
61 2 0.8736898945280416 11.17808811667302 -1.359203460826533 0 0 0
62 2 -0.3078547563874565 15.170512111176702 0.44829884877286796 0 0 0
63 1 2.752802742449475 11.535510122227304 -6.781705149944326 0 0 0
64 1 2.4050876426649666 13.417302275616809 -4.9742044672124175 0 0 0
65 1 2.026982282848735 15.210887208280123 -3.166705304414803 0 0 0
66 2 0.8447971221061721 16.77696470026508 -1.3592033094572789 0 0 0
67 2 0.8581081097683523 20.460044739254304 2.255796806371879 0 0 0
68 2 0.866269895916318 18.631654048194374 4.063296725889614 0 0 0
69 2 -0.3279100502599164 22.60668630346917 5.870798674289289 0 0 0
70 1 4.100779916432401 13.809736166106273 -6.781705700014322 0 0 0
71 1 3.6317816558438096 15.65877162233134 -4.974205717420388 0 0 0
72 1 3.097821657814322 17.373421693420465 -3.166705503690104 0 0 0
73 1 2.7431411847326785 19.000059472930946 -1.3592050570415428 0 0 0
74 1 2.385279235636318 20.893769682614998 0.44829566183936004 0 0 0
75 1 2.004726223315245 22.69029563901312 2.255794890134758 0 0 0
76 1 0.8302123828360237 24.241749878188 4.063296397913941 0 0 0
77 1 0.8353201712049412 26.126347695860428 5.870796402226024 0 0 0
78 1 5.355156350947425 16.053058875893438 -6.781706568488847 0 0 0
79 1 4.944263140948578 17.80012375450796 -4.9742064348722055 0 0 0
80 1 4.499432976525412 19.529940816224578 -3.1667060210718248 0 0 0
81 1 4.074919958705294 21.288301445588242 -1.3592054587216886 0 0 0
82 1 3.5938658759864808 23.150336225425715 0.44829447717117116 0 0 0
83 1 3.039055567442773 24.88620668356086 2.2557946130020077 0 0 0
84 1 2.611156409911544 26.55839565911528 4.063295143234126 0 0 0
85 1 2.3233165883299733 28.3946945533099 5.870795639140308 0 0 0
86 1 6.692431169981063 18.239671378738908 -6.781707340323256 0 0 0
87 1 6.247493781499045 19.999151816385886 -4.974207001084649 0 0 0
88 1 5.770850480518803 21.773135688855813 -3.1667065448178104 0 0 0
89 1 5.302165007396681 23.549968778137103 -1.3592063556416805 0 0 0
90 1 4.85964006306078 25.31340642889236 0.4482937801073482 0 0 0
91 1 4.431425142600077 27.037234194480117 2.255794017107248 0 0 0
92 1 4.008970037029073 28.809607830224625 4.063294586628781 0 0 0
93 1 7.976260035831842 20.45511860323113 -6.781708038212564 0 0 0
94 1 7.512899800245435 22.21914332908761 -4.974207769130488 0 0 0
95 1 7.062996524902786 23.976385948576752 -3.166707518601962 0 0 0
96 1 6.633250496051559 25.729722932995866 -1.359207344801839 0 0 0
97 1 6.201973932308107 27.483472926827478 0.4482929748971022 0 0 0
98 1 5.772065905707763 29.233668946612422 2.2557933191268416 0 0 0
99 1 9.27058705232595 22.654644332366782 -6.781708930964247 0 0 0
100 1 8.831018755602528 24.406569351617318 -4.974208728912078 0 0 0
101 1 8.398727250343413 26.157968138443966 -3.166708475537148 0 0 0
102 1 7.971335929963232 27.908712569980597 -1.3592082185183263 0 0 0
103 1 10.59718240362237 24.838069320751504 -6.7817098931119615 0 0 0
104 1 10.166827828132313 26.586892987040482 -4.974209681760893 0 0 0
105 1 9.743675307755112 28.33405085683584 -3.1667094174203183 0 0 0
106 1 11.935291463265244 27.01721029384174 -6.781710898359175 0 0 0
107 1 11.511935341866206 28.764620202786435 -4.97421063677098 0 0 0
108 1 13.274030542483246 29.199651302034834 -6.781711850524039 0 0 0
109 2 0.8748318844931333 5.553285880076739 -4.974203463751637 0 0 0
110 2 0.8788490778027267 3.726224722056731 -3.166703534949315 0 0 0
111 2 -0.2991158540239809 7.7242924916756515 -1.359201467483001 0 0 0
112 1 2.4132108212677252 5.959512781313702 -6.781704449065867 0 0 0
113 1 2.0360417611817923 7.752712947460534 -4.974205123525154 0 0 0
114 2 0.8575224534853731 9.324503449903087 0.44829662565307576 0 0 0
115 2 0.868942546568988 13.005180581767288 0.4482966528517806 0 0 0
116 2 0.8736898913841742 11.178088118383013 2.25579655735796 0 0 0
117 2 -0.30785497181464905 15.170512255336394 4.063298847082881 0 0 0
118 1 3.6419319748075765 8.198321135500432 -6.781705566872259 0 0 0
119 1 3.107504841288943 9.912484967402076 -4.974205532453633 0 0 0
120 1 2.7528026138882495 11.535510241998647 -3.1667051388776444 0 0 0
121 1 2.405087644397355 13.417302274399457 -1.359204613646318 0 0 0
122 1 2.026982089762299 15.210887203115984 0.4482946974847155 0 0 0
123 2 0.8447971211277832 16.776964703416038 2.2557966841706194 0 0 0
124 2 0.8581082686468875 20.46004465814072 5.870796804209511 0 0 0
125 2 0.8662698925169536 18.631654043380802 -6.781703290659559 0 0 1
126 1 4.9582670458844404 10.33469681794374 -6.781706435904825 0 0 0
127 1 4.519675781795939 12.057834088642128 -4.974206129818367 0 0 0
128 1 4.100779847193522 13.809736191013858 -3.1667057020068903 0 0 0
129 1 3.6317816555132794 15.658771619166227 -1.3592057872223149 0 0 0
130 1 3.0978216645885936 17.373421739296123 0.44829452361757893 0 0 0
131 1 2.7431412824620054 19.000059386675527 2.255794933315545 0 0 0
132 1 2.385279234495158 20.89376968451388 4.063295745388231 0 0 0
133 1 2.004726400603218 22.690295661665385 5.870794888970262 0 0 0
134 1 6.2748555829294475 12.524115010818381 -6.781707035575222 0 0 0
135 1 5.8080719539918135 14.289028415193474 -4.9742067439747375 0 0 0
136 1 5.355156338095057 16.05305887799282 -3.166706563542775 0 0 0
137 1 4.9442631732090945 17.80012373876988 -1.3592064344598758 0 0 0
138 1 4.499432973849906 19.52994081046857 0.4482939990435097 0 0 0
139 1 4.074920015661348 21.2883014154507 2.255794545673123 0 0 0
140 1 3.593865882533791 23.150336228307193 4.0632945481019815 0 0 0
141 1 3.039055562129505 24.88620663806884 5.870794612999041 0 0 0
142 1 7.558307730455169 14.734205860262033 -6.781707679171231 0 0 0
143 1 7.122148966296308 16.483788185871926 -4.974207551620055 0 0 0
144 1 6.692431169725282 18.2396713798754 -3.1667073340969685 0 0 0
145 1 6.2474938001272164 19.999151806385658 -1.3592070025656475 0 0 0
146 1 5.770850482523983 21.773135689583075 0.44829346952354276 0 0 0
147 1 5.3021650298133665 23.549968776257725 2.25579364769326 0 0 0
148 1 4.859640062916071 25.31340642637876 4.06329377658698 0 0 0
149 1 4.43142515266662 27.03723419851082 5.870794015465171 0 0 0
150 1 8.876368227364395 16.9286167023787 -6.781708506290313 0 0 0
151 1 8.43278060559578 18.687767553338883 -4.974208303771921 0 0 0
152 1 7.976260035024481 20.455118603862562 -3.1667080342788094 0 0 0
153 1 7.512899800542584 22.219143327475233 -1.3592077692717344 0 0 0
154 1 7.062996525420019 23.9763859486342 0.4482924856397204 0 0 0
155 1 6.633250498187721 25.72972292934102 2.2557926545158162 0 0 0
156 1 6.201973933270764 27.483472927274658 4.063292975288404 0 0 0
157 1 5.772065904433489 29.233668945995998 5.870793319349953 0 0 0
158 1 10.173105475451237 19.13579997138034 -6.781709350442718 0 0 0
159 1 9.719724669482332 20.89716422960765 -4.974209154587459 0 0 0
160 1 9.270587052413674 22.6546443331039 -3.166708928809378 0 0 0
161 1 8.831018755330717 24.406569353261585 -1.3592087289457884 0 0 0
162 1 8.398727250515634 26.1579681377253 0.4482915248638491 0 0 0
163 1 7.971335930998279 27.90871257018942 2.255791781201867 0 0 0
164 1 11.474074554616422 21.334267840515555 -6.781710203692346 0 0 0
165 1 11.032770511490696 23.087448722096585 -4.974210095816272 0 0 0
166 1 10.597182402953948 24.838069321195302 -3.1667098930772744 0 0 0
167 1 10.166827829080816 26.586892987362592 -1.3592096811427155 0 0 0
168 1 9.743675307481965 28.334050856856845 0.4482905845519506 0 0 0
169 1 12.79610750578486 23.52038141650392 -6.781711296212877 0 0 0
170 1 12.363305389121237 25.269541887625774 -4.974211103731124 0 0 0
171 1 11.935291462613648 27.01721029324675 -3.166710898523843 0 0 0
172 1 11.511935343520648 28.764620201903593 -1.3592106370986112 0 0 0
173 1 14.128701364110967 25.70221143983596 -6.781712530645794 0 0 0
174 1 13.700682226528315 27.450323818583723 -4.9742121626035365 0 0 0
175 1 13.274030542576952 29.199651301496925 -3.1667118500102287 0 0 0
176 1 15.462267754785017 27.88603041162744 -6.781713549125795 0 0 0
177 2 0.8841456272551369 -3.725509505594303 -4.974203370063403 0 0 0
178 2 -0.2937501644231588 0.273563097462592 -3.1667017088030125 0 0 0
179 1 2.041470890213276 0.29996188216660613 -6.781705229630413 0 0 0
180 2 0.8634017700835841 1.8727621596884063 -4.9742036031523424 0 0 0
181 2 0.8748320219675065 5.553285940101706 -1.359203462928152 0 0 0
182 2 0.8788490753162961 3.726224715710753 0.44829647579752635 0 0 0
183 2 -0.29911598161956476 7.724292495234732 2.255798532956482 0 0 0
184 1 3.1134079074743823 2.458826675882573 -6.781705446885249 0 0 0
185 1 2.7582843578310587 4.080686914925824 -4.974205138775091 0 0 0
186 1 2.413210822365741 5.9595127850133345 -3.166704377218969 0 0 0
187 1 2.0360416210508987 7.752712875670479 -1.35920512515191 0 0 0
188 2 0.8575224539330861 9.324503452357302 4.063296626532021 0 0 0
189 2 0.8689428440276004 13.005180482259586 4.063296653101616 0 0 0
190 2 0.8736898945086864 11.1780881164573 5.870796539696094 0 0 0
191 2 -0.3078547392966158 15.17051210611982 -6.781701151093715 0 0 1
192 1 4.528075680944184 4.601062423111518 -6.781706122588606 0 0 0
193 1 4.110030345837686 6.351158127867233 -4.974205635753933 0 0 0
194 1 3.641931986037264 8.198321132649095 -3.166705612041293 0 0 0
195 1 3.107504855479135 9.912485032101838 -1.359205494196763 0 0 0
196 1 2.7528027419201493 11.535510120259726 0.4482948472618773 0 0 0
197 1 2.4050876429023447 13.417302275367238 2.255795531780193 0 0 0
198 1 2.0269822616062925 15.210887202553796 4.063294696083652 0 0 0
199 2 0.8447971220888348 16.77696469964773 5.870796690737925 0 0 0
200 1 5.819333210525713 6.829390176396277 -6.781706769568225 0 0 0
201 1 5.367319989792833 8.59108097618174 -4.974206551162187 0 0 0
202 1 4.958267082112883 10.33469679545922 -3.1667064324406042 0 0 0
203 1 4.519675774843165 12.057834081485264 -1.3592061049672162 0 0 0
204 1 4.100779914159375 13.809736168414847 0.44829430095204165 0 0 0
205 1 3.6317816561570737 15.65877162243331 2.2557942736874343 0 0 0
206 1 3.0978216590040972 17.37342170118762 4.063294501199713 0 0 0
207 1 2.7431412056319857 19.00005945454227 5.870794942963386 0 0 0
208 1 7.138422235619672 9.019752516346816 -6.781707586715679 0 0 0
209 1 6.713230391201876 10.770602825963895 -4.9742073524691115 0 0 0
210 1 6.274855599505315 12.52411500028408 -3.166707036143607 0 0 0
211 1 5.808071954020264 14.289028418550128 -1.3592067305145143 0 0 0
212 1 5.355156350158694 16.053058876538596 0.44829343239910635 0 0 0
213 1 4.944263144290844 17.80012375260843 2.2557935646212566 0 0 0
214 1 4.499432976459161 19.529940815099874 4.063293981780869 0 0 0
215 1 4.074919970160408 21.28830143917276 5.870794543138323 0 0 0
216 1 8.459481053924094 11.217006986884538 -6.78170822017537 0 0 0
217 1 8.010777476583343 12.978000512103936 -4.974207917449905 0 0 0
218 1 7.558307734017703 14.73420585854409 -3.1667076814991315 0 0 0
219 1 7.122148958731287 16.483788190703688 -1.3592075499431997 0 0 0
220 1 6.692431168679633 18.239671378948994 0.4482926589801326 0 0 0
221 1 6.247493782886366 19.99915181587424 2.255792998013454 0 0 0
222 1 5.770850480210939 21.773135688882075 4.063293455814047 0 0 0
223 1 5.302165008326426 23.549968777962366 5.870793646852568 0 0 0
224 1 9.757944137436724 13.421387327948548 -6.7817088226385716 0 0 0
225 1 9.315739468184631 15.17521671074078 -4.974208681638859 0 0 0
226 1 8.876368228709552 16.928616703303643 -3.166708507636804 0 0 0
227 1 8.43278060229379 18.687767556535302 -1.3592083036069 0 0 0
228 1 7.976260035294715 20.45511860331033 0.4482919616404809 0 0 0
229 1 7.51289980057399 22.21914332902158 2.2557922304088374 0 0 0
230 1 7.0629965251037135 23.97638594889494 4.063292481028963 0 0 0
231 1 6.633250496355046 25.729722933014042 5.870792655052593 0 0 0
232 1 11.067866581035446 15.618438237854537 -6.781709832471037 0 0 0
233 1 10.623388088384743 17.37532177471154 -4.974209580028367 0 0 0
234 1 10.17310547586078 19.135799971793052 -3.166709352346953 0 0 0
235 1 9.719724668233283 20.897164230008652 -1.3592091542523659 0 0 0
236 1 9.270587052275559 22.65464433250617 0.4482910689736249 0 0 0
237 1 8.831018755787724 24.406569351794356 2.2557912711683588 0 0 0
238 1 8.3987272503107 26.15796813823253 4.063291524662964 0 0 0
239 1 7.971335929753323 27.908712570018988 5.870791781429116 0 0 0
240 1 12.36994466333148 17.82001125146809 -6.781710679355558 0 0 0
241 1 11.920996938669703 19.577993507083125 -4.974210440118841 0 0 0
242 1 11.474074553698884 21.33426784103379 -3.1667102023476947 0 0 0
243 1 11.032770510995505 23.08744872389975 -1.3592100958478128 0 0 0
244 1 10.59718240351853 24.838069320721043 0.44829010683189896 0 0 0
245 1 10.166827828034386 26.586892987257368 2.2557903183660626 0 0 0
246 1 9.743675307877936 28.33405085678906 4.063290582647368 0 0 0
247 1 13.675192552396169 20.01642048946439 -6.781711538537875 0 0 0
248 1 13.233408043927597 21.769443624926122 -4.9742113828441346 0 0 0
249 1 12.796107505731143 23.520381415965314 -3.1667112954606655 0 0 0
250 1 12.363305391062426 25.269541887644788 -1.3592111044738544 0 0 0
251 1 11.935291463066562 27.017210293724514 0.44828910189565246 0 0 0
252 1 11.511935342058578 28.764620202881186 2.255789363370021 0 0 0
253 1 14.994656971635251 22.20413789249506 -6.781712706546808 0 0 0
254 1 14.559863755512879 23.953743363372478 -4.974212644372225 0 0 0
255 1 14.128701364416983 25.702211440233167 -3.1667125307071964 0 0 0
256 1 13.700682225120872 27.450323818683177 -1.3592121629798428 0 0 0
257 1 13.274030542335709 29.199651301946698 0.44828814949377094 0 0 0
258 1 16.323027981747884 24.388071604225996 -6.781714038751967 0 0 0
259 1 15.89198500887008 26.13677492688611 -4.974213871826688 0 0 0
260 1 15.462267755796773 27.886030411604768 -3.1667135504639408 0 0 0
261 1 17.652812997621623 26.573053776039284 -6.781715216922181 0 0 0
262 1 17.22117472587702 28.32330132081586 -4.97421490417249 0 0 0
263 1 18.978561600621973 28.761372122615096 -6.781716223622883 0 0 0
264 2 -0.2894881917705021 -7.180506797966185 -4.974201390128687 0 0 0
265 2 0.8651574092366019 -5.578894980873319 -3.1667033762060752 0 0 0
266 2 0.8796413000460035 -1.8984313661099392 -3.1667033259175796 0 0 0
267 2 0.8841456230202027 -3.7255095052418206 -1.359203409467947 0 0 0
268 2 -0.29374960046210674 0.27356284812126574 0.4482982935659897 0 0 0
269 1 2.7639535237554895 -3.3700604776245733 -6.781704952485244 0 0 0
270 1 2.418629706547236 -1.4927766095624229 -4.974204374143871 0 0 0
271 1 2.0414713618008165 0.2999619847091708 -3.1667052312505963 0 0 0
272 2 0.8634017713647495 1.8727621563345345 -1.359203584872214 0 0 0
273 2 0.8748318840560074 5.553285881978521 2.2557965327941565 0 0 0
274 2 0.8788490781230109 3.7262247251684038 4.0632964692153255 0 0 0
275 2 -0.29911593410034243 7.724292521354972 5.870798532839974 0 0 0
276 1 4.116284095732198 -1.1004735328847737 -6.7817055009188305 0 0 0
277 1 3.648019867439686 0.7452355347233102 -4.974205544327803 0 0 0
278 1 3.1134078839294403 2.4588265210251556 -3.1667054626895688 0 0 0
279 1 2.7582843225343083 4.080686948037158 -1.359205095898252 0 0 0
280 1 2.413210819693603 5.959512781657086 0.44829555498073465 0 0 0
281 1 2.036041758241808 7.752712946531798 2.2557948748995518 0 0 0
282 2 0.857522453520005 9.324503451050635 -6.781703372785915 0 0 1
283 2 0.8689425440980472 13.005180587141279 -6.7817033476921 0 0 1
284 1 5.37452026662271 1.1381876841581544 -6.781706489951564 0 0 0
285 1 4.96549275219536 2.8801427501937376 -4.974206424811752 0 0 0
286 1 4.528075697999853 4.601062444716131 -3.166706124633814 0 0 0
287 1 4.110030341829386 6.351158108611504 -1.359205641490321 0 0 0
288 1 3.6419319844589495 8.19832113835474 0.4482944473749285 0 0 0
289 1 3.107504841563909 9.912484968692343 2.2557944656580244 0 0 0
290 1 2.7528026158963144 11.535510241844623 4.063294858005789 0 0 0
291 1 2.4050876446834764 13.417302274799393 5.87079538728399 0 0 0
292 1 6.722685931685575 3.315445429828049 -6.78170742032219 0 0 0
293 1 6.285202962315694 5.066790629301071 -4.97420717831911 0 0 0
294 1 5.819333204233629 6.829390172422318 -3.166706770780776 0 0 0
295 1 5.36731999906317 8.591080981392363 -1.3592065588640305 0 0 0
296 1 4.958267044140953 10.334696816184692 0.4482935637037097 0 0 0
297 1 4.5196757815320865 12.057834088603652 2.2557938715888786 0 0 0
298 1 4.100779850688355 13.809736188570835 4.063294298639355 0 0 0
299 1 3.6317816603058333 15.658771620225327 5.8707942127252615 0 0 0
300 1 8.023383515304403 5.5201754837515615 -6.781708154292297 0 0 0
301 1 7.57227745115776 7.273677734241087 -4.974207892797692 0 0 0
302 1 7.13842222743817 9.019752522001145 -3.166707584713104 0 0 0
303 1 6.713230391050857 10.770602825509872 -1.359207362075875 0 0 0
304 1 6.274855584097409 12.524115011191075 0.4482929644991152 0 0 0
305 1 5.808071954213474 14.289028415212083 2.255793256122379 0 0 0
306 1 5.355156338582262 16.053058877802588 4.063293437285313 0 0 0
307 1 4.944263166926035 17.800123740691358 5.8707935649851395 0 0 0
308 1 9.333291498628753 7.7136410948169605 -6.781708916492061 0 0 0
309 1 8.897620977647989 9.462905590328749 -4.974208662300337 0 0 0
310 1 8.459481049517393 11.217006989389763 -3.1667082193013982 0 0 0
311 1 8.010777475586792 12.978000515755266 -1.3592079200741054 0 0 0
312 1 7.558307730387796 14.73420586005464 0.4482923203709338 0 0 0
313 1 7.122148965658738 16.483788186398183 2.255792448509882 0 0 0
314 1 6.692431170307955 18.239671379714547 4.06329266529573 0 0 0
315 1 6.247493798218571 19.999151807883532 5.87079299728062 0 0 0
316 1 10.64890867260145 9.909006473554232 -6.781709619020313 0 0 0
317 1 10.204313635309731 11.664867627307505 -4.974209192473638 0 0 0
318 1 9.757944136684756 13.421387328811516 -3.166708822993309 0 0 0
319 1 9.315739468916519 15.175216710768556 -1.359208681889117 0 0 0
320 1 8.87636822767503 16.928616702365897 0.44829149349725184 0 0 0
321 1 8.43278060556797 18.687767553332716 2.255791696407418 0 0 0
322 1 7.976260035361122 20.45511860370973 4.063291965539711 0 0 0
323 1 7.512899800782492 22.21914332756481 5.870792230717838 0 0 0
324 1 11.953511920099515 12.109300768516047 -6.781710377412126 0 0 0
325 1 11.510024983614699 13.863756172870541 -4.974209996503534 0 0 0
326 1 11.067866580441475 15.61843823796259 -3.1667098328301044 0 0 0
327 1 10.623388090281509 17.37532177273106 -1.3592095793587988 0 0 0
328 1 10.173105475554635 19.135799971506838 0.4482906495150423 0 0 0
329 1 9.719724669687992 20.897164229679415 2.255790845518533 0 0 0
330 1 9.270587052468798 22.654644332980492 4.063291071445255 0 0 0
331 1 8.831018755479164 24.40656935323121 5.87079127115875 0 0 0
332 1 13.26142829104245 14.306838093317818 -6.781711236212386 0 0 0
333 1 12.817033946848511 16.062535680868006 -4.974210927198429 0 0 0
334 1 12.36994466349816 17.820011250846942 -3.1667106786133186 0 0 0
335 1 11.920996939773545 19.57799350562662 -1.3592104403551635 0 0 0
336 1 11.474074554550413 21.334267840650877 0.44828979606898745 0 0 0
337 1 11.032770511587316 23.087448721841678 2.255789904163878 0 0 0
338 1 10.59718240305186 24.838069320978928 4.063290106934075 0 0 0
339 1 10.166827829087367 26.58689298732323 5.870790318910454 0 0 0
340 1 14.566643605890732 16.505434291347978 -6.781712086867877 0 0 0
341 1 14.120379088405173 18.26139582230923 -4.97421181488396 0 0 0
342 1 13.675192552177478 20.01642048932081 -3.1667115392993606 0 0 0
343 1 13.233408046412364 21.769443623991574 -1.3592113833199542 0 0 0
344 1 12.79610750579684 23.52038141628277 0.4482887037054999 0 0 0
345 1 12.363305389058084 25.269541887322145 2.2557888961396446 0 0 0
346 1 11.93529146272843 27.0172102930588 4.063289101312695 0 0 0
347 1 11.51193534349649 28.764620201996205 5.870789362898242 0 0 0
348 1 15.874759765900578 18.700317292508284 -6.781713053401176 0 0 0
349 1 15.433072988884618 20.45303536631673 -4.9742128038545 0 0 0
350 1 14.9946569717236 22.204137892286123 -3.1667127057227256 0 0 0
351 1 14.559863757806227 23.953743363340326 -1.3592126441643788 0 0 0
352 1 14.128701364250801 25.70221143987843 0.44828746933383257 0 0 0
353 1 13.700682226681764 27.450323818327615 2.2557878373075835 0 0 0
354 1 13.274030542585265 29.199651301414132 4.063288150133783 0 0 0
355 1 17.19274181817579 20.88900009246606 -6.78171417283828 0 0 0
356 1 16.756473896918763 22.639000818358692 -4.974214101575768 0 0 0
357 1 16.323027981243342 24.388071604059686 -3.1667140397385714 0 0 0
358 1 15.891985008599406 26.136774927397948 -1.3592138713983535 0 0 0
359 1 15.46226775483261 27.886030411693564 0.44828645078168056 0 0 0
360 1 18.517920784907062 23.074490073306546 -6.781715493606078 0 0 0
361 1 18.084747236028633 24.823663327430435 -4.974215396525671 0 0 0
362 1 17.652812997350168 26.573053776634847 -3.166715216157766 0 0 0
363 1 17.221174726009338 28.32330132118319 -1.359214903903172 0 0 0
364 1 19.84479048371267 25.260407263512864 -6.78171682024869 0 0 0
365 1 19.411700350364555 27.01048726450072 -4.974216630833241 0 0 0
366 1 18.978561601157807 28.76137212253182 -3.166716223802601 0 0 0
367 1 21.169277260969267 27.44860472998693 -6.781718054358184 0 0 0
368 1 20.735073549855912 29.199880665414714 -4.974217600222651 0 0 0
369 2 0.8849428209723271 -9.34998869866612 -4.974203271239619 0 0 0
370 2 0.8917753682119809 -11.177201509851454 -3.1667032953811334 0 0 0
371 2 -0.28948816077959805 -7.1805068825583405 -1.3592013897388253 0 0 0
372 1 2.4237646017109853 -8.940278620894933 -6.781704264397966 0 0 0
373 1 2.0457472244329438 -7.148710177166965 -4.974205176866933 0 0 0
374 2 0.8651574088017213 -5.578894982798747 0.4482966182123414 0 0 0
375 2 0.8796410222919917 -1.8984311279719783 0.448296672505968 0 0 0
376 2 0.8841456271822068 -3.725509505413452 2.2557966326868346 0 0 0
377 2 -0.2937502169410635 0.27356311606380146 4.0632982908075235 0 0 0
378 1 3.6537833750005007 -6.702464382046831 -6.781705521968908 0 0 0
379 1 3.1198041964711507 -4.990696659227414 -4.974205354561748 0 0 0
380 1 2.763953376102023 -3.37006034613772 -3.1667049557105553 0 0 0
381 1 2.4186297058897566 -1.4927766062545622 -1.3592044999310542 0 0 0
382 1 2.0414708417940375 0.2999618673679194 0.4482947699784221 0 0 0
383 2 0.8634017702529064 1.872762159992142 2.2557963945150474 0 0 0
384 2 0.8748320358864845 5.55328590281999 5.870796537423124 0 0 0
385 2 0.8788490759139052 3.7262247183675647 -6.781703528250512 0 0 1
386 1 4.972735959599703 -4.568071279306853 -6.781706153138685 0 0 0
387 1 4.534867705398824 -2.8490089796939806 -4.974205907182307 0 0 0
388 1 4.116283996190347 -1.1004734725351 -3.1667054995383723 0 0 0
389 1 3.648019874203257 0.7452355343332435 -1.3592057278901246 0 0 0
390 1 3.113407910930192 2.4588266944857473 0.44829454972878485 0 0 0
391 1 2.7582843579681935 4.080686915142589 2.2557948566480737 0 0 0
392 1 2.413210823211415 5.959512785128826 4.0632956274989445 0 0 0
393 1 2.0360416971266346 7.752712898051289 5.870794875058546 0 0 0
394 1 6.293187589498601 -2.3823248449056216 -6.781706862225262 0 0 0
395 1 5.826833812884686 -0.6217713401381104 -4.974206589668947 0 0 0
396 1 5.37452022729309 1.1381876801123703 -3.166706488251038 0 0 0
397 1 4.965492758747914 2.8801427447764176 -1.3592064157687926 0 0 0
398 1 4.528075678472618 4.601062421650678 0.44829387602114845 0 0 0
399 1 4.110030346126294 6.351158127729651 2.2557943623173125 0 0 0
400 1 3.6419319767416027 8.198321130389186 4.063294403716981 0 0 0
401 1 3.107504849954097 9.91248500819908 5.870794505790705 0 0 0
402 1 7.581336088428529 -0.1769190491764725 -6.781707708404866 0 0 0
403 1 7.147383881253646 1.566924962267148 -4.974207602164834 0 0 0
404 1 6.722685933663001 3.315445434745026 -3.1667074153800496 0 0 0
405 1 6.285202960058413 5.066790629853262 -1.3592071826440297 0 0 0
406 1 5.819333208703199 6.829390177491721 0.4482932298811258 0 0 0
407 1 5.367319989682613 8.591080976338123 2.2557934436268354 0 0 0
408 1 4.9582670830454845 10.334696797503522 4.063293567252859 0 0 0
409 1 4.519675777049585 12.05783408482895 5.870793894809327 0 0 0
410 1 8.90869956763217 2.0101396488886856 -6.781708801217715 0 0 0
411 1 8.471135099850002 3.7617225483932906 -4.974208518571798 0 0 0
412 1 8.023383515275555 5.5201754821257545 -3.16670815462777 0 0 0
413 1 7.57227745130713 7.27367773444686 -1.3592078905568583 0 0 0
414 1 7.138422235262354 9.01975251649272 0.44829241353901306 0 0 0
415 1 6.713230391177007 10.770602826251316 2.255792647704069 0 0 0
416 1 6.274855598182896 12.52411500057369 4.063292963929874 0 0 0
417 1 5.808071952820242 14.289028418359539 5.8707932696929195 0 0 0
418 1 10.218315979682828 4.209469182079264 -6.781709612624974 0 0 0
419 1 9.773268145862247 5.963126410649867 -4.974209253723537 0 0 0
420 1 9.333291501466633 7.713641094631836 -3.166708915811096 0 0 0
421 1 8.897620976107504 9.462905589377922 -1.3592086601687148 0 0 0
422 1 8.459481053698056 11.217006987090553 0.44829177997704023 0 0 0
423 1 8.010777476604531 12.978000512599468 2.255792082265624 0 0 0
424 1 7.558307734191288 14.734205859063 4.063292318682527 0 0 0
425 1 7.122148959691273 16.483788189945084 5.870792450655735 0 0 0
426 1 11.528373683371072 6.405078150817705 -6.781710464477344 0 0 0
427 1 11.089149708662632 8.156202800611798 -4.974210014633684 0 0 0
428 1 10.648908673404478 9.909006473027883 -3.166709619046625 0 0 0
429 1 10.204313634377598 11.664867626913637 -1.3592091922167135 0 0 0
430 1 9.757944137162823 13.421387328038929 0.4482911773455288 0 0 0
431 1 9.315739468149957 15.175216711117333 2.25579131824061 0 0 0
432 1 8.876368228679098 16.92861670349711 4.063291492535806 0 0 0
433 1 8.432780602666213 18.687767556229804 5.870791696830008 0 0 0
434 1 12.841260340022274 8.600415425425393 -6.7817112848046275 0 0 0
435 1 12.398104709450635 10.354462221878233 -4.974210751906939 0 0 0
436 1 11.953511920859484 12.109300768287934 -3.1667103766686826 0 0 0
437 1 11.51002498167702 13.86375617243753 -1.3592099961655617 0 0 0
438 1 11.067866581076231 15.618438237789139 0.44829016768187874 0 0 0