LAMMPS data file via write_data, version 29 Aug 2024, timestep = 1177, units = metal

14624 atoms
2 atom types

-100.1 100.1 xlo xhi
-29.8100853 29.8100853 ylo yhi
-7.23 7.23 zlo zhi
0 0 0 xy xz yz

Masses

1 63.55
2 63.55

Atoms # atomic

1 1 0.6692339688041216 28.256808146367543 -6.777737281183879 0 0 0
2 1 0.28948364090970813 22.59404093546274 -6.777737281185355 0 0 0
3 1 1.3328150798198806 24.756091806153787 -6.777737281185591 0 0 0
4 1 0.980592736476126 26.384761321221088 -4.970237281184827 0 0 0
5 1 0.6692339688041216 28.256808146367558 -3.1627372811836687 0 0 0
6 1 2.7644880147284425 26.868775808935833 -6.777737281185985 0 0 0
7 1 2.3607897435123277 28.625631180770956 -4.9702372811852715 0 0 0
8 1 4.064113211053069 29.082449762068794 -6.777737281186898 0 0 0
9 1 0.9597147460927289 18.91972365617173 -6.77773728118416 0 0 0
10 1 0.6541655323425459 20.790420555959255 -4.970237281184031 0 0 0
11 1 0.28948364091080236 22.594040935463052 -3.1627372811853687 0 0 0
12 1 2.342900379307224 21.15474072580221 -6.777737281185285 0 0 0
13 1 1.8829230902965293 23.020171778629145 -4.970237281185629 0 0 0
14 1 1.3328150798197953 24.75609180615336 -3.1627372811855903 0 0 0
15 1 0.9805927364760549 26.384761321221145 -1.3552372811847755 0 0 0
16 1 0.6692339688041216 28.25680814636757 0.4522627188163796 0 0 0
17 1 3.593006458365636 23.387193946699266 -6.777737281186775 0 0 0
18 1 3.1858867783614926 25.144284364883344 -4.970237281186665 0 0 0
19 1 2.7644880147285136 26.86877580893592 -3.162737281185971 0 0 0
20 1 2.3607897435122567 28.625631180770977 -1.3552372811853197 0 0 0
21 1 4.945692060571517 25.54712505610375 -6.777737281187793 0 0 0
22 1 4.521344527590969 27.309104613622228 -4.9702372811872095 0 0 0
23 1 4.064113211053069 29.082449762068773 -3.162737281186921 0 0 0
24 1 6.2549496628205645 27.738230597456063 -6.777737281188548 0 0 0
25 1 5.811670550954517 29.504050098743686 -4.970237281188123 0 0 0
26 1 0.642137227038603 13.298640281261303 -6.77773728118256 0 0 0
27 1 0.28965107541969815 15.125823670255496 -4.970237281183518 0 0 0
28 1 1.8660394982275648 15.516516510953497 -6.777737281183856 0 0 0
29 1 1.317762620318888 17.285488785702466 -4.970237281184196 0 0 0
30 1 0.9597147460925868 18.91972365617185 -3.1627372811841905 0 0 0
31 1 0.6541655323425459 20.790420555959255 -1.355237281184111 0 0 0
32 1 0.28948364091024814 22.59404093546293 0.4522627188146442 0 0 0
33 1 3.1533737930678427 17.64472213085534 -6.777737281185183 0 0 0
34 1 2.742652416566713 19.389623123011386 -4.97023728118509 0 0 0
35 1 2.3429003793070393 21.154740725802366 -3.162737281185285 0 0 0
36 1 1.882923090296444 23.020171778629138 -1.3552372811859539 0 0 0
37 1 1.3328150798197953 24.756091806153545 0.452262718814405 0 0 0
38 1 0.9805927364759981 26.384761321221273 2.2597627188152236 0 0 0
39 1 0.6692339688041926 28.256808146367614 4.067262718815768 0 0 0
40 1 4.4896055733272675 19.81399521422132 -6.777737281186322 0 0 0
41 1 4.040022158607911 21.60371430718173 -4.970237281186538 0 0 0
42 1 3.5930064583655508 23.38719394669923 -3.162737281186795 0 0 0
43 1 3.185886778361507 25.144284364883344 -1.3552372811866467 0 0 0
44 1 2.764488014728485 26.868775808935855 0.45226271881402447 0 0 0
45 1 2.3607897435121714 28.62563118077092 2.25976271881476 0 0 0
46 1 5.779083056810691 22.016870400797718 -6.777737281187738 0 0 0
47 1 5.356661724174231 23.784162922602437 -4.9702372811877185 0 0 0
48 1 4.945692060571517 25.547125056103777 -3.162737281187786 0 0 0
49 1 4.521344527590969 27.309104613622207 -1.3552372811872222 0 0 0
50 1 4.06411321105314 29.082449762068816 0.4522627188130837 0 0 0
51 1 7.112550922812474 24.1968002984822 -6.777737281189195 0 0 0
52 1 6.6905555879312 25.965486853095566 -4.970237281189265 0 0 0
53 1 6.2549496628205645 27.738230597456056 -3.1627372811885412 0 0 0
54 1 5.811670550954517 29.504050098743686 -1.3552372811881075 0 0 0
55 1 8.432517151701646 26.388643451810264 -6.777737281190665 0 0 0
56 1 8.000010248002042 28.15727309459781 -4.970237281190046 0 0 0
57 1 9.752389536911195 28.576576809956887 -6.777737281191989 0 0 0
58 2 -0.3503345841356662 7.659442358339017 -4.9702372811827935 0 0 0
59 1 0.7780568696986876 9.34910554458315 -6.777737281182681 0 0 0
60 1 0.8198124613304429 11.249687722780397 -4.970237281182192 0 0 0
61 1 0.6421372270389156 13.298640281261402 -3.1627372811826966 0 0 0
62 1 0.28965107541996815 15.12582367025566 -1.3552372811835434 0 0 0
63 1 2.583963137777829 11.737174570336013 -6.77773728118191 0 0 0
64 1 2.281842793381429 13.574181175393033 -4.970237281183082 0 0 0
65 1 1.8660394982275221 15.51651651095342 -3.1627372811836936 0 0 0
66 1 1.3177626203188737 17.28548878570231 -1.3552372811841438 0 0 0
67 1 0.9597147460926863 18.91972365617175 0.452262718815853 0 0 0
68 1 0.6541655323425459 20.79042055595924 2.259762718815977 0 0 0
69 1 0.28948364091080236 22.594040935463067 4.067262718814635 0 0 0
70 1 3.958914360568116 14.023250738542043 -6.7777372811838035 0 0 0
71 1 3.545066431716222 15.846562389475931 -4.970237281184792 0 0 0
72 1 3.153373793067928 17.64472213085534 -3.1627372811852084 0 0 0
73 1 2.7426524165667274 19.3896231230114 -1.3552372811850613 0 0 0
74 1 2.342900379307153 21.154740725802288 0.45226271881470836 0 0 0
75 1 1.882923090296444 23.020171778629138 2.259762718814251 0 0 0
76 1 1.3328150798197953 24.756091806153332 4.067262718814447 0 0 0
77 1 0.980592736476126 26.384761321221045 5.874762718815325 0 0 0
78 1 5.294162585085033 16.24359230003147 -6.777737281185396 0 0 0
79 1 4.899830223405161 18.02898283149946 -4.970237281186245 0 0 0
80 1 4.48960557332731 19.81399521422129 -3.1627372811863155 0 0 0
81 1 4.04002215860794 21.603714307181722 -1.3552372811865125 0 0 0
82 1 3.5930064583655934 23.387193946699266 0.4522627188132202 0 0 0
83 1 3.185886778361535 25.144284364883344 2.259762718813336 0 0 0
84 1 2.7644880147285136 26.86877580893592 4.067262718814013 0 0 0
85 1 2.360789743512285 28.62563118077099 5.874762718814754 0 0 0
86 1 6.639370427963712 18.448505065580303 -6.7777372811870675 0 0 0
87 1 6.214091622187539 20.23537744585178 -4.970237281187368 0 0 0
88 1 5.779083056810691 22.016870400797718 -3.1627372811877543 0 0 0
89 1 5.356661724174231 23.784162922602437 -1.3552372811877038 0 0 0
90 1 4.945692060571503 25.547125056103777 0.45226271881221364 0 0 0
91 1 4.521344527590998 27.309104613622207 2.259762718812787 0 0 0
92 1 4.064113211053112 29.082449762068773 4.0672627188131045 0 0 0
93 1 7.954917939552729 20.65678649277279 -6.777737281188531 0 0 0
94 1 7.531400429028494 22.428803619036128 -4.970237281188773 0 0 0
95 1 7.112550922812474 24.1968002984822 -3.1627372811891914 0 0 0
96 1 6.6905555879312 25.965486853095566 -1.3552372811892666 0 0 0
97 1 6.2549496628205645 27.738230597456063 0.4522627188114511 0 0 0
98 1 5.811670550954517 29.504050098743686 2.259762718811875 0 0 0
99 1 9.284221603521232 22.850457083780572 -6.77773728119034 0 0 0
100 1 8.861001712049472 24.618446366582017 -4.9702372811905535 0 0 0
101 1 8.432517151701646 26.388643451810257 -3.1627372811906764 0 0 0
102 1 8.000010248002042 28.15727309459781 -1.3552372811900502 0 0 0
103 1 10.609232840558718 25.04552389079549 -6.7777372811919925 0 0 0
104 1 10.18030419547 26.811931904853108 -4.97023728119214 0 0 0
105 1 9.752389536911195 28.576576809956887 -3.1627372811919945 0 0 0
106 1 11.932932371918767 27.237820930031486 -6.777737281193801 0 0 0
107 1 11.506134401436356 28.999787424554565 -4.97023728119403 0 0 0
108 1 13.260192000071797 29.427067907570287 -6.777737281195136 0 0 0
109 2 0.8540304548977957 5.555813365869948 -4.970237281182421 0 0 0
110 2 0.8817861127752025 3.7236768469302497 -3.162737281182116 0 0 0
111 2 -0.35033458413639096 7.659442358339465 -1.3552372811827456 0 0 0
112 1 2.3628932223733443 6.064450115328125 -6.777737281181814 0 0 0
113 1 1.9758178415010121 7.854110092809304 -4.9702372811822535 0 0 0
114 1 0.7780568696986876 9.349105544583171 -3.1627372811826953 0 0 0
115 1 0.819812461330514 11.249687722780347 -1.3552372811821933 0 0 0
116 1 0.6421372270385319 13.298640281261303 0.4522627188174857 0 0 0
117 1 0.2896510754193429 15.125823670255262 2.2597627188164777 0 0 0
118 1 3.569612871908319 8.336258972870372 -6.777737281181966 0 0 0
119 1 3.0258839522142154 10.060502876799884 -4.9702372811815625 0 0 0
120 1 2.5839631377777863 11.737174570336084 -3.1627372811818892 0 0 0
121 1 2.2818427933815 13.574181175393068 -1.355237281183236 0 0 0
122 1 1.86603949822765 15.516516510953526 0.4522627188160954 0 0 0
123 1 1.3177626203189163 17.285488785702608 2.259762718815803 0 0 0
124 1 0.9597147460925868 18.91972365617185 4.067262718815782 0 0 0
125 1 0.6541655323425175 20.790420555959255 5.874762718815897 0 0 0
126 1 4.83525178579913 10.519644848104345 -6.777737281182036 0 0 0
127 1 4.396583009211653 12.245517914958786 -4.970237281182814 0 0 0
128 1 3.9589143605680874 14.023250738542014 -3.162737281183814 0 0 0
129 1 3.545066431716151 15.846562389475917 -1.3552372811847635 0 0 0
130 1 3.1533737930678427 17.644722130855325 0.45226271881481916 0 0 0
131 1 2.742652416566685 19.389623123011344 2.259762718814922 0 0 0
132 1 2.3429003793070393 21.154740725802366 4.067262718814721 0 0 0
133 1 1.8829230902965293 23.020171778629145 5.874762718813922 0 0 0
134 1 6.156593663397217 12.718935025799933 -6.777737281183664 0 0 0
135 1 5.71023049869207 14.474477470029104 -4.970237281184911 0 0 0
136 1 5.294162585085047 16.243592300031477 -3.162737281185416 0 0 0
137 1 4.899830223405161 18.028982831499444 -1.3552372811862645 0 0 0
138 1 4.4896055733272675 19.81399521422132 0.4522627188136697 0 0 0
139 1 4.04002215860794 21.603714307181722 2.2597627188134597 0 0 0
140 1 3.5930064583655366 23.387193946699245 4.067262718813243 0 0 0
141 1 3.1858867783614926 25.14428436488335 5.874762718813357 0 0 0
142 1 7.479655932098609 14.92060529693698 -6.777737281185804 0 0 0
143 1 7.055550443814283 16.676447478759943 -4.970237281186336 0 0 0
144 1 6.639370427963712 18.448505065580303 -3.1627372811870704 0 0 0
145 1 6.214091622187539 20.23537744585178 -1.3552372811873754 0 0 0
146 1 5.779083056810691 22.016870400797718 0.4522627188122554 0 0 0
147 1 5.356661724174231 23.784162922602444 2.259762718812284 0 0 0
148 1 4.945692060571517 25.547125056103777 4.067262718812194 0 0 0
149 1 4.521344527590998 27.309104613622228 5.874762718812771 0 0 0
150 1 8.81427663501458 17.12033033080954 -6.7777372811868215 0 0 0
151 1 8.383768192257307 18.88452439838834 -4.970237281187865 0 0 0
152 1 7.9549179395527005 20.656786492772785 -3.1627372811885297 0 0 0
153 1 7.531400429028494 22.428803619036128 -1.3552372811887763 0 0 0
154 1 7.112550922812474 24.19680029848219 0.45226271881079927 0 0 0
155 1 6.6905555879312 25.965486853095573 2.2597627188107334 0 0 0
156 1 6.254949662820536 27.738230597456056 4.0672627188114525 0 0 0
157 1 5.811670550954517 29.50405009874368 5.874762718811878 0 0 0
158 1 10.13726061354484 19.323368480320408 -6.777737281188753 0 0 0
159 1 9.70797781569101 21.08526682760211 -4.970237281189768 0 0 0
160 1 9.284221603521232 22.85045708378058 -3.1627372811903336 0 0 0
161 1 8.861001712049472 24.618446366582003 -1.3552372811905582 0 0 0
162 1 8.432517151701646 26.388643451810264 0.4522627188093287 0 0 0
163 1 8.000010248002042 28.1572730945978 2.259762718809952 0 0 0
164 1 11.464969668509013 21.519920602524298 -6.77773728119121 0 0 0
165 1 11.037078263514232 23.280675764273678 -4.970237281191627 0 0 0
166 1 10.609232840558718 25.045523890795483 -3.1627372811919927 0 0 0
167 1 10.18030419547 26.811931904853115 -1.3552372811921354 0 0 0
168 1 9.752389536911195 28.576576809956887 0.45226271880800273 0 0 0
169 1 12.791518583064487 23.715484928502367 -6.777737281193174 0 0 0
170 1 12.361431786541644 25.475897809877733 -4.970237281193672 0 0 0
171 1 11.932932371918767 27.237820930031486 -3.162737281193803 0 0 0
172 1 11.506134401436356 28.999787424554558 -1.3552372811940299 0 0 0
173 1 14.1171005385644 25.909014525443904 -6.7777372811950825 0 0 0
174 1 13.687999789362607 27.66739608095811 -4.970237281195192 0 0 0
175 1 13.26019200007184 29.42706790757028 -3.16273728119514 0 0 0
176 1 15.444434092315518 28.10009305118677 -6.777737281196565 0 0 0
177 2 0.9243450408337424 -3.7372704755365405 -4.970237281180943 0 0 0
178 2 -0.31535896384343687 0.20690843607882314 -3.1627372811822245 0 0 0
179 1 2.015864166339128 0.38672586666296027 -6.777737281180339 0 0 0
180 2 0.7752288321320577 1.864621022228949 -4.970237281181932 0 0 0
181 2 0.8540304548978384 5.555813365869636 -1.3552372811826405 0 0 0
182 2 0.8817861127752451 3.7236768469302 0.45226271881785335 0 0 0
183 2 -0.35033458413583674 7.659442358339259 2.2597627188171954 0 0 0
184 1 3.129614512322746 2.5454884213739426 -6.777737281180754 0 0 0
185 1 2.7674298975375393 4.165497065355485 -4.970237281181258 0 0 0
186 1 2.362893222373188 6.0644501153280395 -3.1627372811819012 0 0 0
187 1 1.975817841501481 7.85411009280946 -1.3552372811822464 0 0 0
188 1 0.7780568696986876 9.34910554458315 0.45226271881732033 0 0 0
189 1 0.8198124613304429 11.24968772278039 2.2597627188178038 0 0 0
190 1 0.6421372270388872 13.298640281261402 4.067262718817215 0 0 0
191 1 0.28965107542009605 15.125823670255723 5.874762718816464 0 0 0
192 1 4.505196854667005 4.736591211821118 -6.777737281181429 0 0 0
193 1 4.061002444696143 6.485539984439573 -4.970237281181839 0 0 0
194 1 3.5696128719083475 8.336258972870393 -3.1627372811818604 0 0 0
195 1 3.025883952214187 10.060502876799799 -1.3552372811815487 0 0 0
196 1 2.583963137777829 11.737174570336013 0.4522627188180893 0 0 0
197 1 2.2818427933814576 13.574181175393019 2.2597627188169302 0 0 0
198 1 1.8660394982275648 15.51651651095344 4.067262718816398 0 0 0
199 1 1.3177626203188453 17.285488785702253 5.874762718815847 0 0 0
200 1 5.761677249575101 6.995309655913115 -6.777737281181927 0 0 0
201 1 5.285504381593739 8.761015362819077 -4.97023728118223 0 0 0
202 1 4.83525178579913 10.51964484810431 -3.1627372811820496 0 0 0
203 1 4.396583009211653 12.245517914958793 -1.3552372811828115 0 0 0
204 1 3.958914360568116 14.023250738542057 0.45226271881619656 0 0 0
205 1 3.545066431716222 15.846562389475931 2.2597627188151965 0 0 0
206 1 3.1533737930679138 17.64472213085534 4.067262718814778 0 0 0
207 1 2.7426524165667274 19.3896231230114 5.874762718814945 0 0 0
208 1 7.045650276725809 9.214387570678763 -6.777737281182884 0 0 0
209 1 6.60272953015965 10.96400777866911 -4.970237281183143 0 0 0
210 1 6.156593663397217 12.718935025799933 -3.1627372811836776 0 0 0
211 1 5.71023049869207 14.474477470029104 -1.355237281184904 0 0 0
212 1 5.294162585085033 16.243592300031462 0.45226271881460245 0 0 0
213 1 4.899830223405161 18.02898283149945 2.259762718813752 0 0 0
214 1 4.48960557332731 19.81399521422129 4.067262718813686 0 0 0
215 1 4.040022158607911 21.603714307181715 5.874762718813492 0 0 0
216 1 8.361937070437847 11.417929473912583 -6.777737281184418 0 0 0
217 1 7.916795130926346 13.169427495767554 -4.970237281184795 0 0 0
218 1 7.479655932098609 14.92060529693698 -3.162737281185797 0 0 0
219 1 7.055550443814255 16.676447478759943 -1.355237281186336 0 0 0
220 1 6.639370427963712 18.448505065580303 0.45226271881293123 0 0 0
221 1 6.214091622187539 20.23537744585178 2.259762718812633 0 0 0
222 1 5.779083056810691 22.016870400797718 4.067262718812247 0 0 0
223 1 5.356661724174231 23.784162922602437 5.874762718812303 0 0 0
224 1 9.681608004832938 13.616720837472666 -6.777737281186102 0 0 0
225 1 9.24578899711328 15.365952001987043 -4.970237281186477 0 0 0
226 1 8.81427663501458 17.120330330809548 -3.162737281186816 0 0 0
227 1 8.383768192257307 18.88452439838834 -1.355237281187866 0 0 0
228 1 7.954917939552729 20.65678649277279 0.4522627188114655 0 0 0
229 1 7.531400429028494 22.428803619036128 2.259762718811225 0 0 0
230 1 7.112550922812474 24.1968002984822 4.067262718810802 0 0 0
231 1 6.6905555879312 25.965486853095566 5.874762718810735 0 0 0
232 1 11.008122502253059 15.81265619650124 -6.777737281187276 0 0 0
233 1 10.571640691682845 17.56560877965075 -4.970237281187842 0 0 0
234 1 10.13726061354484 19.3233684803204 -3.1627372811887553 0 0 0
235 1 9.707977815690981 21.085266827602137 -1.3552372811897708 0 0 0
236 1 9.284221603521232 22.85045708378058 0.4522627188096627 0 0 0
237 1 8.8610017120495 24.618446366582003 2.25976271880944 0 0 0
238 1 8.432517151701646 26.388643451810264 4.067262718809327 0 0 0
239 1 8.000010248002042 28.1572730945978 5.874762718809953 0 0 0
240 1 12.330918466841723 18.00988538426954 -6.777737281189123 0 0 0
241 1 11.895849752866098 19.763325047776082 -4.970237281189902 0 0 0
242 1 11.464969668509013 21.51992060252429 -3.1627372811912147 0 0 0
243 1 11.037078263514232 23.280675764273678 -1.3552372811916233 0 0 0
244 1 10.609232840558718 25.04552389079549 0.45226271880801394 0 0 0
245 1 10.180304195470015 26.811931904853108 2.2597627188078633 0 0 0
246 1 9.752389536911195 28.576576809956887 4.067262718807999 0 0 0
247 1 13.655981632311878 20.204398445722784 -6.777737281191639 0 0 0
248 1 13.222850445875125 21.958189416724846 -4.970237281192734 0 0 0
249 1 12.791518583064487 23.71548492850236 -3.1627372811931758 0 0 0
250 1 12.36143178654163 25.475897809877733 -1.3552372811936615 0 0 0
251 1 11.932932371918767 27.237820930031493 0.4522627188061967 0 0 0
252 1 11.506134401436384 28.999787424554572 2.2597627188059657 0 0 0
253 1 14.981429148733582 22.397988775964176 -6.777737281194252 0 0 0
254 1 14.548274027820199 24.15237473453416 -4.9702372811947715 0 0 0
255 1 14.1171005385644 25.909014525443897 -3.1627372811950782 0 0 0
256 1 13.687999789362607 27.66739608095811 -1.3552372811951945 0 0 0
257 1 13.26019200007184 29.427067907570287 0.4522627188048674 0 0 0
258 1 16.306797932459432 24.590389879048683 -6.777737281196088 0 0 0
259 1 15.874719955908503 26.34435417337733 -4.970237281196456 0 0 0
260 1 15.444434092315518 28.100093051186757 -3.1627372811965664 0 0 0
261 1 17.633361736173256 26.78122485049764 -6.777737281197382 0 0 0
262 1 17.202003047210994 28.534896394879194 -4.970237281197187 0 0 0
263 1 18.960537607713192 28.971044608028105 -6.777737281197887 0 0 0
264 1 -0.3021370959212675 -7.246681772507337 -4.970237281181987 0 0 0
265 2 0.7337594292994396 -5.584079379536671 -3.1627372811815047 0 0 0
266 2 0.8879107240003492 -1.9024053666465726 -3.1627372811810552 0 0 0
267 2 0.9243450408336571 -3.737270475536544 -1.3552372811809363 0 0 0
268 2 -0.3153589638436074 0.20690843607882314 0.45226271881776503 0 0 0
269 1 2.8261320582528384 -3.256738215835675 -6.777737281180627 0 0 0
270 1 2.407263508274525 -1.394754904169826 -4.97023728118033 0 0 0
271 1 2.015864166339057 0.3867258666628963 -3.162737281180336 0 0 0
272 2 0.7752288321320719 1.8646210222289419 -1.3552372811819324 0 0 0
273 2 0.8540304548983499 5.5558133658697635 2.259762718817563 0 0 0
274 2 0.8817861127752167 3.7236768469302497 4.067262718817857 0 0 0
275 2 -0.35033458413637675 7.659442358339387 5.874762718817231 0 0 0
276 1 4.123433997701753 -0.9587906306921106 -6.7777372811807615 0 0 0
277 1 3.641052154847813 0.8544604894666499 -4.970237281180445 0 0 0
278 1 3.129614512322746 2.5454884213739284 -3.1627372811807444 0 0 0
279 1 2.7674298975374683 4.165497065355513 -1.355237281181254 0 0 0
280 1 2.362893222373259 6.064450115328054 0.4522627188182611 0 0 0
281 1 1.9758178415010832 7.8541100928092895 2.2597627188177474 0 0 0
282 1 0.7780568696986876 9.349105544583164 4.067262718817299 0 0 0
283 1 0.819812461330514 11.249687722780347 5.874762718817799 0 0 0
284 1 5.388521510270195 1.2818171583814326 -6.777737281180375 0 0 0
285 1 4.971401619301091 3.0093227508220046 -4.970237281180815 0 0 0
286 1 4.505196854667048 4.736591211821096 -3.1627372811814074 0 0 0
287 1 4.061002444696143 6.485539984439594 -1.3552372811817937 0 0 0
288 1 3.569612871908319 8.336258972870379 0.45226271881805563 0 0 0
289 1 3.0258839522142154 10.060502876799891 2.2597627188184393 0 0 0
290 1 2.5839631377777863 11.737174570336077 4.067262718818106 0 0 0
291 1 2.2818427933815 13.574181175393075 5.8747627188168 0 0 0
292 1 6.714617486961387 3.484686380252402 -6.777737281181266 0 0 0
293 1 6.2515687792948995 5.232235143512231 -4.970237281181436 0 0 0
294 1 5.761677249575115 6.995309655913108 -3.162737281181913 0 0 0
295 1 5.285504381593739 8.761015362819034 -1.3552372811822446 0 0 0
296 1 4.835251785799116 10.519644848104338 0.4522627188179609 0 0 0
297 1 4.396583009211653 12.245517914958793 2.2597627188171794 0 0 0
298 1 3.958914360568073 14.023250738542036 4.067262718816174 0 0 0
299 1 3.545066431716151 15.846562389475917 5.874762718815197 0 0 0
300 1 7.9828832133386385 5.713039310174121 -6.777737281181892 0 0 0
301 1 7.507102820857398 7.465249752871923 -4.9702372811821345 0 0 0
302 1 7.04565027672578 9.214387570678763 -3.1627372811828764 0 0 0
303 1 6.602729530159664 10.964007778669117 -1.3552372811831412 0 0 0
304 1 6.156593663397217 12.71893502579994 0.45226271881633784 0 0 0
305 1 5.71023049869207 14.474477470029111 2.259762718815092 0 0 0
306 1 5.294162585085047 16.243592300031477 4.067262718814582 0 0 0
307 1 4.899830223405161 18.02898283149945 5.874762718813737 0 0 0
308 1 9.264848024370565 7.924469602900107 -6.77773728118283 0 0 0
309 1 8.81043568813918 9.669588043064952 -4.970237281183593 0 0 0
310 1 8.361937070437847 11.417929473912597 -3.1627372811844308 0 0 0
311 1 7.916795130926346 13.169427495767547 -1.3552372811848012 0 0 0
312 1 7.479655932098609 14.92060529693698 0.45226271881419466 0 0 0
313 1 7.055550443814283 16.676447478759936 2.2597627188136618 0 0 0
314 1 6.639370427963712 18.448505065580296 4.06726271881293 0 0 0
315 1 6.214091622187539 20.23537744585178 5.874762718812619 0 0 0
316 1 10.572573520455506 10.1233783546005 -6.777737281184413 0 0 0
317 1 10.124170286673234 11.869375001653108 -4.970237281185371 0 0 0
318 1 9.681608004832938 13.616720837472645 -3.162737281186091 0 0 0
319 1 9.24578899711328 15.365952001987043 -1.3552372811864788 0 0 0
320 1 8.81427663501458 17.120330330809548 0.4522627188131785 0 0 0
321 1 8.383768192257307 18.88452439838834 2.25976271881214 0 0 0
322 1 7.9549179395527005 20.656786492772778 4.06726271881147 0 0 0
323 1 7.531400429028494 22.428803619036128 5.874762718811219 0 0 0
324 1 11.888247861693017 12.318307967209133 -6.77773728118564 0 0 0
325 1 11.446345566575673 14.0641048806301 -4.970237281186715 0 0 0
326 1 11.008122502253059 15.81265619650124 -3.162737281187273 0 0 0
327 1 10.571640691682845 17.56560877965075 -1.355237281187849 0 0 0
328 1 10.13726061354484 19.3233684803204 0.45226271881123914 0 0 0
329 1 9.707977815690981 21.08526682760211 2.2597627188102263 0 0 0
330 1 9.284221603521232 22.85045708378058 4.067262718809661 0 0 0
331 1 8.8610017120495 24.618446366582003 5.874762718809435 0 0 0
332 1 13.209426944890197 14.51121440046435 -6.777737281187368 0 0 0
333 1 12.769165286325176 16.259170651226224 -4.970237281188162 0 0 0
334 1 12.330918466841737 18.00988538426955 -3.162737281189131 0 0 0
335 1 11.895849752866098 19.76332504777609 -1.3552372811899047 0 0 0
336 1 11.464969668509013 21.519920602524298 0.4522627188087877 0 0 0
337 1 11.037078263514232 23.280675764273678 2.2597627188083753 0 0 0
338 1 10.609232840558718 25.04552389079549 4.067262718808009 0 0 0
339 1 10.18030419547 26.811931904853115 5.874762718807857 0 0 0
340 1 14.530435187417297 16.704428241844735 -6.777737281189303 0 0 0
341 1 14.0917888140455 18.45340188521808 -4.970237281190319 0 0 0
342 1 13.655981632311878 20.204398445722784 -3.162737281191646 0 0 0
343 1 13.222850445875125 21.958189416724846 -1.3552372811927318 0 0 0
344 1 12.791518583064487 23.715484928502367 0.45226271880682917 0 0 0
345 1 12.36143178654163 25.475897809877733 2.2597627188063285 0 0 0
346 1 11.932932371918767 27.237820930031486 4.067262718806197 0 0 0
347 1 11.506134401436384 28.999787424554565 5.874762718805967 0 0 0
348 1 15.853069442939699 18.896407898044895 -6.7777372811919525 0 0 0
349 1 15.416320045130988 20.64609249926023 -4.9702372811933015 0 0 0
350 1 14.981429148733582 22.397988775964176 -3.162737281194257 0 0 0
351 1 14.548274027820199 24.152374734534153 -1.35523728119477 0 0 0
352 1 14.1171005385644 25.909014525443897 0.4522627188049268 0 0 0
353 1 13.687999789362607 27.66739608095811 2.259762718804813 0 0 0
354 1 13.26019200007184 29.42706790757028 4.067262718804858 0 0 0
355 1 17.176705002161057 21.08773297756878 -6.777737281194407 0 0 0
356 1 16.740857855485388 22.838200249118895 -4.970237281195495 0 0 0
357 1 16.306797932459432 24.590389879048683 -3.162737281196087 0 0 0
358 1 15.874719955908503 26.34435417337733 -1.3552372811964555 0 0 0
359 1 15.444434092315518 28.10009305118677 0.45226271880343216 0 0 0
360 1 18.500898259786553 23.27838159876831 -6.77773728119628 0 0 0
361 1 18.066277866037666 25.02908986218699 -4.9702372811967495 0 0 0
362 1 17.6333617361733 26.781224850497633 -3.1627372811973715 0 0 0
363 1 17.202003047210994 28.53489639487921 -1.3552372811971876 0 0 0
364 1 19.82617127523747 25.468129072909843 -6.777737281197409 0 0 0
365 1 19.392623861983424 27.218990834888853 -4.970237281197995 0 0 0
366 1 18.960537607713192 28.97104460802812 -3.1627372811978827 0 0 0
367 1 21.15225137694155 27.65723037408085 -6.777737281198647 0 0 0
368 1 20.71969009080894 29.408108344112133 -4.970237281198741 0 0 0
369 1 1.0245867596964189 -10.984375771600487 -6.777737281182463 0 0 0
370 1 0.9188103175138167 -9.298920300758326 -4.9702372811812845 0 0 0
371 1 -0.3021370959189795 -7.2466817725096 -1.355237281181996 0 0 0
372 1 2.4465783602723974 -8.720911064002237 -6.777737281182335 0 0 0
373 1 2.0335266655939392 -6.967443807790662 -4.9702372811817686 0 0 0
374 2 0.7337594292994822 -5.584079379536671 0.45226271881852115 0 0 0
375 2 0.8879107239999513 -1.9024053666465655 0.4522627188189482 0 0 0
376 2 0.9243450408337424 -3.737270475536537 2.2597627188190557 0 0 0
377 2 -0.31535896384353634 0.20690843607880183 4.067262718817774 0 0 0
378 1 3.6980162437426856 -6.5139824558949755 -6.777737281181521 0 0 0
379 1 3.2116121646292584 -4.848750284864284 -4.970237281180998 0 0 0
380 1 2.8261320582526395 -3.2567382158354974 -3.162737281180686 0 0 0
381 1 2.4072635082745393 -1.3947549041697975 -1.355237281180518 0 0 0
382 1 2.015864166339213 0.3867258666629887 0.4522627188196578 0 0 0
383 2 0.7752288321320577 1.864621022228949 2.2597627188180702 0 0 0
384 2 0.8540304548976252 5.555813365869714 5.874762718817357 0 0 0
385 2 0.8817861127752167 3.723676846930193 -6.777737281182156 0 0 1
386 1 5.051462568306576 -4.3869925887566055 -6.777737281181234 0 0 0
387 1 4.57937049011619 -2.6803824043810884 -4.9702372811809505 0 0 0
388 1 4.12343399770171 -0.9587906306921141 -3.1627372811807324 0 0 0
389 1 3.6410521548477845 0.8544604894666357 -1.3552372811804185 0 0 0
390 1 3.129614512322746 2.545488421373843 0.45226271881920826 0 0 0
391 1 2.7674298975372267 4.1654970653557335 2.259762718818746 0 0 0
392 1 2.3628932223731596 6.064450115328032 4.067262718817918 0 0 0
393 1 1.975817841501481 7.854110092809467 5.874762718817774 0 0 0
394 1 6.33605288828096 -2.18883174003399 -6.777737281181142 0 0 0
395 1 5.850565236364062 -0.4515305129176639 -4.970237281180489 0 0 0
396 1 5.388521510270195 1.2818171583814504 -3.1627372811804033 0 0 0
397 1 4.971401619301062 3.009322750822026 -1.3552372811808246 0 0 0
398 1 4.505196854667034 4.736591211821132 0.4522627188185565 0 0 0
399 1 4.061002444696101 6.485539984439573 2.259762718818176 0 0 0
400 1 3.569612871908319 8.336258972870407 4.067262718818138 0 0 0
401 1 3.0258839522141443 10.060502876799799 5.874762718818448 0 0 0
402 1 7.613153342675531 0.01565154376722333 -6.777737281180531 0 0 0
403 1 7.1638134455314315 1.7443112908389438 -4.970237281180739 0 0 0
404 1 6.714617486961345 3.484686380252409 -3.162737281181276 0 0 0
405 1 6.251568779294871 5.232235143512238 -1.3552372811814348 0 0 0
406 1 5.761677249575101 6.995309655913108 0.45226271881807006 0 0 0
407 1 5.2855043815937535 8.761015362819055 2.2597627188177603 0 0 0
408 1 4.83525178579913 10.51964484810431 4.067262718817953 0 0 0
409 1 4.396583009211653 12.245517914958793 5.874762718817184 0 0 0
410 1 8.917919363662577 2.2140674388287813 -6.7777372811813095 0 0 0
411 1 8.455835403293904 3.959240487705909 -4.9702372811816575 0 0 0
412 1 7.98288321333861 5.713039310174121 -3.1627372811819012 0 0 0
413 1 7.507102820857398 7.465249752871916 -1.35523728118215 0 0 0
414 1 7.045650276725809 9.214387570678763 0.4522627188171133 0 0 0
415 1 6.60272953015965 10.96400777866911 2.2597627188168583 0 0 0
416 1 6.156593663397217 12.718935025799933 4.067262718816333 0 0 0
417 1 5.71023049869207 14.474477470029111 5.874762718815105 0 0 0
418 1 10.19712155526777 4.427399186026403 -6.777737281182179 0 0 0
419 1 9.728422815132603 6.177057283899469 -4.970237281182497 0 0 0
420 1 9.264848024370565 7.924469602900107 -3.1627372811828316 0 0 0
421 1 8.81043568813918 9.669588043064945 -1.3552372811835955 0 0 0
422 1 8.361937070437847 11.41792947391259 0.4522627188155801 0 0 0
423 1 7.916795130926346 13.169427495767547 2.2597627188152027 0 0 0
424 1 7.479655932098609 14.92060529693698 4.067262718814203 0 0 0
425 1 7.055550443814283 16.676447478759943 5.874762718813663 0 0 0
426 1 11.48220420870625 6.632814872606485 -6.777737281183148 0 0 0
427 1 11.025051685972414 8.378327388828186 -4.970237281183634 0 0 0
428 1 10.572573520455506 10.123378354600522 -3.162737281184411 0 0 0
429 1 10.124170286673234 11.869375001653108 -1.355237281185368 0 0 0
430 1 9.681608004832938 13.616720837472666 0.45226271881390406 0 0 0
431 1 9.24578899711328 15.365952001987043 2.2597627188135223 0 0 0
432 1 8.81427663501458 17.120330330809548 4.067262718813182 0 0 0
433 1 8.383768192257307 18.884524398388333 5.874762718812136 0 0 0
434 1 12.785101290432607 8.828657889368667 -6.777737281184507 0 0 0
435 1 12.334730704284667 10.57350143093851 -4.970237281184906 0 0 0
436 1 11.888247861693017 12.318307967209133 -3.16273728118564 0 0 0
437 1 11.446345566575673 14.064104880630108 -1.3552372811867188 0 0 0
438 1 11.008122502253059 15.812656196501248 0.45226271881273056 0 0 0
439 1 10.571640691682845 17.56560877965075 2.2597627188121545 0 0 0