# LAMMPS data file Sigma = 17, inclination = 0.000000
#LAMMPS data file
14624 atoms
2 atom types
-100.1000000000 100.1000000000 xlo xhi
-29.8100853000 29.8100853000 ylo yhi
-7.2300000000 7.2300000000 zlo zhi
0.0 0.0 0.0 xy xz yz

Atoms # atomic

1 1 0.4383823920 28.0529918267 -5.4225000000
2 1 -0.0000005978 22.3575907507 -5.4225000000
3 1 1.3151487703 24.5331168977 -5.4225000000
4 1 0.8767655812 26.2943037165 -3.6150000000
5 1 0.4383823920 28.0529918267 -1.8075000000
6 1 2.6302981385 26.7170907182 -5.4225000000
7 1 2.1919149493 28.4780352388 -3.6150000000
8 1 3.9454475066 28.9049914089 -5.4225000000
9 1 0.8767657804 18.8134469943 -5.4225000000
10 1 0.4383825913 20.5927497711 -3.6150000000
11 1 -0.0000005978 22.3575907507 -1.8075000000
12 1 2.1919151486 20.9945510400 -5.4225000000
13 1 1.7535319595 22.7676813634 -3.6150000000
14 1 1.3151487703 24.5331168977 -1.8075000000
15 1 0.8767655812 26.2943037165 0.0000000000
16 1 0.4383823920 28.0529918267 1.8075000000
17 1 3.5070645167 23.1849248071 -5.4225000000
18 1 3.0686813276 24.9532228582 -3.6150000000
19 1 2.6302981385 26.7170907182 -1.8075000000
20 1 2.1919149493 28.4780352388 0.0000000000
21 1 4.8222138849 25.3776251199 -5.4225000000
22 1 4.3838306958 27.1427105770 -3.6150000000
23 1 3.9454475066 28.9049914089 -1.8075000000
24 1 6.1373632530 27.5710917095 -5.4225000000
25 1 5.6989800639 29.3339560848 -3.6150000000
26 2 0.8767665776 11.4272114754 -5.4225000000
27 2 0.0000003986 15.3434508675 -3.6150000000
28 1 1.7535321587 15.0870371428 -5.4225000000
29 1 1.3151489696 16.9845514996 -3.6150000000
30 1 0.8767657804 18.8134469943 -1.8075000000
31 1 0.4383825913 20.5927497711 0.0000000000
32 1 -0.0000005978 22.3575907507 1.8075000000
33 1 3.0686815269 17.3966960438 -5.4225000000
34 1 2.6302983377 19.2070414756 -3.6150000000
35 1 2.1919151486 20.9945510400 -1.8075000000
36 1 1.7535319595 22.7676813634 0.0000000000
37 1 1.3151487703 24.5331168977 1.8075000000
38 1 0.8767655812 26.2943037165 3.6150000000
39 1 0.4383823920 28.0529918267 5.4225000000
40 1 4.3838308950 19.6255773586 -5.4225000000
41 1 3.9454477059 21.4099371880 -3.6150000000
42 1 3.5070645167 23.1849248071 -1.8075000000
43 1 3.0686813276 24.9532228582 0.0000000000
44 1 2.6302981385 26.7170907182 1.8075000000
45 1 2.1919149493 28.4780352388 3.6150000000
46 1 5.6989802632 21.8349088788 -5.4225000000
47 1 5.2605970740 23.6087336015 -3.6150000000
48 1 4.8222138849 25.3776251199 -1.8075000000
49 1 4.3838306958 27.1427105770 0.0000000000
50 1 3.9454475066 28.9049914089 1.8075000000
51 1 7.0141296313 24.0375200175 -5.4225000000
52 1 6.5757464422 25.8058018783 -3.6150000000
53 1 6.1373632530 27.5710917095 -1.8075000000
54 1 5.6989800639 29.3339560848 0.0000000000
55 1 8.3292789995 26.2369843529 -5.4225000000
56 1 7.8908958103 28.0018877340 -3.6150000000
57 1 9.6444283676 28.4346720028 -5.4225000000
58 2 0.0000001993 7.8909198379 -5.4225000000
59 2 0.4383833884 9.6561601567 -3.6150000000
60 2 1.3151497667 13.2124314524 -3.6150000000
61 2 0.8767665776 11.4272114754 -1.8075000000
62 2 0.0000003986 15.3434508675 0.0000000000
63 1 2.6302985370 11.4916896234 -5.4225000000
64 1 2.1919153479 13.2673897249 -3.6150000000
65 1 1.7535321587 15.0870371428 -1.8075000000
66 1 1.3151489696 16.9845514996 0.0000000000
67 1 0.8767657804 18.8134469943 1.8075000000
68 1 0.4383825913 20.5927497711 3.6150000000
69 1 -0.0000005978 22.3575907507 5.4225000000
70 1 3.9454479052 13.7656946391 -5.4225000000
71 1 3.5070647160 15.5727940092 -3.6150000000
72 1 3.0686815269 17.3966960438 -1.8075000000
73 1 2.6302983377 19.2070414756 0.0000000000
74 1 2.1919151486 20.9945510400 1.8075000000
75 1 1.7535319595 22.7676813634 3.6150000000
76 1 1.3151487703 24.5331168977 5.4225000000
77 1 0.8767655812 26.2943037165 7.2300000000
78 1 5.2605972733 16.0325247254 -5.4225000000
79 1 4.8222140842 17.8311707619 -3.6150000000
80 1 4.3838308950 19.6255773586 -1.8075000000
81 1 3.9454477059 21.4099371880 0.0000000000
82 1 3.5070645167 23.1849248071 1.8075000000
83 1 3.0686813276 24.9532228582 3.6150000000
84 1 2.6302981385 26.7170907182 5.4225000000
85 1 2.1919149493 28.4780352388 7.2300000000
86 1 6.5757466415 18.2710503576 -5.4225000000
87 1 6.1373634523 20.0554184774 -3.6150000000
88 1 5.6989802632 21.8349088788 -1.8075000000
89 1 5.2605970740 23.6087336015 0.0000000000
90 1 4.8222138849 25.3776251199 1.8075000000
91 1 4.3838306958 27.1427105770 3.6150000000
92 1 3.9454475066 28.9049914089 5.4225000000
93 1 7.8908960096 20.4906166514 -5.4225000000
94 1 7.4525128205 22.2657936193 -3.6150000000
95 1 7.0141296313 24.0375200175 -1.8075000000
96 1 6.5757464422 25.8058018783 0.0000000000
97 1 6.1373632530 27.5710917095 1.8075000000
98 1 5.6989800639 29.3339560848 3.6150000000
99 1 9.2060453778 22.7002818742 -5.4225000000
100 1 8.7676621886 24.4698207176 -3.6150000000
101 1 8.3292789995 26.2369843529 -1.8075000000
102 1 7.8908958103 28.0018877340 0.0000000000
103 1 10.5211947459 24.9045526608 -5.4225000000
104 1 10.0828115568 26.6704523009 -3.6150000000
105 1 9.6444283676 28.4346720028 -1.8075000000
106 1 11.8363441141 27.1056239135 -5.4225000000
107 1 11.3979609249 28.8690398580 -3.6150000000
108 1 13.1514934822 29.3046468685 -5.4225000000
109 2 1.3151495674 5.7255803623 -5.4225000000
110 2 0.8767663783 3.9622427566 -3.6150000000
111 2 0.0000001993 7.8909198379 -1.8075000000
112 1 2.1919155472 5.7447683166 -5.4225000000
113 1 1.7535323580 7.4935837909 -3.6150000000
114 2 0.4383833884 9.6561601567 0.0000000000
115 2 1.3151497667 13.2124314524 0.0000000000
116 2 0.8767665776 11.4272114754 1.8075000000
117 2 0.0000003986 15.3434508675 3.6150000000
118 1 3.5070649153 7.9728547659 -5.4225000000
119 1 3.0686817262 9.7294523166 -3.6150000000
120 1 2.6302985370 11.4916896234 -1.8075000000
121 1 2.1919153479 13.2673897249 0.0000000000
122 1 1.7535321587 15.0870371428 1.8075000000
123 1 1.3151489696 16.9845514996 3.6150000000
124 1 0.8767657804 18.8134469943 5.4225000000
125 1 0.4383825913 20.5927497711 7.2300000000
126 1 4.8222142835 10.2113656324 -5.4225000000
127 1 4.3838310943 11.9814562705 -3.6150000000
128 1 3.9454479052 13.7656946391 -1.8075000000
129 1 3.5070647160 15.5727940092 0.0000000000
130 1 3.0686815269 17.3966960438 1.8075000000
131 1 2.6302983377 19.2070414756 3.6150000000
132 1 2.1919151486 20.9945510400 5.4225000000
133 1 1.7535319595 22.7676813634 7.2300000000
134 1 6.1373636516 12.4578866761 -5.4225000000
135 1 5.6989804625 14.2397576199 -3.6150000000
136 1 5.2605972733 16.0325247254 -1.8075000000
137 1 4.8222140842 17.8311707619 0.0000000000
138 1 4.3838308950 19.6255773586 1.8075000000
139 1 3.9454477059 21.4099371880 3.6150000000
140 1 3.5070645167 23.1849248071 5.4225000000
141 1 3.0686813276 24.9532228582 7.2300000000
142 1 7.4525130197 14.7017965532 -5.4225000000
143 1 7.0141298306 16.4850262974 -3.6150000000
144 1 6.5757466415 18.2710503576 -1.8075000000
145 1 6.1373634523 20.0554184774 0.0000000000
146 1 5.6989802632 21.8349088788 1.8075000000
147 1 5.2605970740 23.6087336015 3.6150000000
148 1 4.8222138849 25.3776251199 5.4225000000
149 1 4.3838306958 27.1427105770 7.2300000000
150 1 8.7676623879 16.9344088427 -5.4225000000
151 1 8.3292791988 18.7128596253 -3.6150000000
152 1 7.8908960096 20.4906166514 -1.8075000000
153 1 7.4525128205 22.2657936193 0.0000000000
154 1 7.0141296313 24.0375200175 1.8075000000
155 1 6.5757464422 25.8058018783 3.6150000000
156 1 6.1373632530 27.5710917095 5.4225000000
157 1 5.6989800639 29.3339560848 7.2300000000
158 1 10.0828117560 19.1554517834 -5.4225000000
159 1 9.6444285669 20.9285888989 -3.6150000000
160 1 9.2060453778 22.7002818742 -1.8075000000
161 1 8.7676621886 24.4698207176 0.0000000000
162 1 8.3292789995 26.2369843529 1.8075000000
163 1 7.8908958103 28.0018877340 3.6150000000
164 1 11.3979611242 21.3680925732 -5.4225000000
165 1 10.9595779351 23.1370106571 -3.6150000000
166 1 10.5211947459 24.9045526608 -1.8075000000
167 1 10.0828115568 26.6704523009 0.0000000000
168 1 9.6444283676 28.4346720028 1.8075000000
169 1 12.7131104923 23.5751646364 -5.4225000000
170 1 12.2747273032 25.3409659185 -3.6150000000
171 1 11.8363441141 27.1056239135 -1.8075000000
172 1 11.3979609249 28.8690398580 0.0000000000
173 1 14.0282598605 25.7785484963 -5.4225000000
174 1 13.5898766713 27.5420564763 -3.6150000000
175 1 13.1514934822 29.3046468685 -1.8075000000
176 1 15.3434092286 27.9794207838 -5.4225000000
177 2 0.8767661790 -3.4888689960 -5.4225000000
178 2 -0.0000000000 0.4383888550 -3.6150000000
179 1 1.7535325573 0.0324931110 -5.4225000000
180 2 0.4383831891 2.2001014948 -5.4225000000
181 2 1.3151495674 5.7255803623 -1.8075000000
182 2 0.8767663783 3.9622427566 0.0000000000
183 2 0.0000001993 7.8909198379 1.8075000000
184 1 3.0686819254 2.2488936167 -5.4225000000
185 1 2.6302987363 3.9964400979 -3.6150000000
186 1 2.1919155472 5.7447683166 -1.8075000000
187 1 1.7535323580 7.4935837909 0.0000000000
188 2 0.4383833884 9.6561601567 3.6150000000
189 2 1.3151497667 13.2124314524 3.6150000000
190 2 0.8767665776 11.4272114754 5.4225000000
191 2 0.0000003986 15.3434508675 7.2300000000
192 1 4.3838312936 4.4680704177 -5.4225000000
193 1 3.9454481044 6.2193772259 -3.6150000000
194 1 3.5070649153 7.9728547659 -1.8075000000
195 1 3.0686817262 9.7294523166 0.0000000000
196 1 2.6302985370 11.4916896234 1.8075000000
197 1 2.1919153479 13.2673897249 3.6150000000
198 1 1.7535321587 15.0870371428 5.4225000000
199 1 1.3151489696 16.9845514996 7.2300000000
200 1 5.6989806617 6.6919037656 -5.4225000000
201 1 5.2605974726 8.4492174292 -3.6150000000
202 1 4.8222142835 10.2113656324 -1.8075000000
203 1 4.3838310943 11.9814562705 0.0000000000
204 1 3.9454479052 13.7656946391 1.8075000000
205 1 3.5070647160 15.5727940092 3.6150000000
206 1 3.0686815269 17.3966960438 5.4225000000
207 1 2.6302983377 19.2070414756 7.2300000000
208 1 7.0141300299 8.9209884588 -5.4225000000
209 1 6.5757468407 10.6858438605 -3.6150000000
210 1 6.1373636516 12.4578866761 -1.8075000000
211 1 5.6989804625 14.2397576199 0.0000000000
212 1 5.2605972733 16.0325247254 1.8075000000
213 1 4.8222140842 17.8311707619 3.6150000000
214 1 4.3838308950 19.6255773586 5.4225000000
215 1 3.9454477059 21.4099371880 7.2300000000
216 1 8.3292793980 11.1532715988 -5.4225000000
217 1 7.8908962089 12.9243468381 -3.6150000000
218 1 7.4525130197 14.7017965532 -1.8075000000
219 1 7.0141298306 16.4850262974 0.0000000000
220 1 6.5757466415 18.2710503576 1.8075000000
221 1 6.1373634523 20.0554184774 3.6150000000
222 1 5.6989802632 21.8349088788 5.4225000000
223 1 5.2605970740 23.6087336015 7.2300000000
224 1 9.6444287662 13.3842159832 -5.4225000000
225 1 9.2060455770 15.1575926132 -3.6150000000
226 1 8.7676623879 16.9344088427 -1.8075000000
227 1 8.3292791988 18.7128596253 0.0000000000
228 1 7.8908960096 20.4906166514 1.8075000000
229 1 7.4525128205 22.2657936193 3.6150000000
230 1 7.0141296313 24.0375200175 5.4225000000
231 1 6.5757464422 25.8058018783 7.2300000000
232 1 10.9595781343 15.6097559991 -5.4225000000
233 1 10.5211949452 17.3820511713 -3.6150000000
234 1 10.0828117560 19.1554517834 -1.8075000000
235 1 9.6444285669 20.9285888989 0.0000000000
236 1 9.2060453778 22.7002818742 1.8075000000
237 1 8.7676621886 24.4698207176 3.6150000000
238 1 8.3292789995 26.2369843529 5.4225000000
239 1 7.8908958103 28.0018877340 7.2300000000
240 1 12.2747275025 17.8285462358 -5.4225000000
241 1 11.8363443133 19.5983432850 -3.6150000000
242 1 11.3979611242 21.3680925732 -1.8075000000
243 1 10.9595779351 23.1370106571 0.0000000000
244 1 10.5211947459 24.9045526608 1.8075000000
245 1 10.0828115568 26.6704523009 3.6150000000
246 1 9.6444283676 28.4346720028 5.4225000000
247 1 13.5898768706 20.0412992499 -5.4225000000
248 1 13.1514936815 21.8084706982 -3.6150000000
249 1 12.7131104923 23.5751646364 -1.8075000000
250 1 12.2747273032 25.3409659185 0.0000000000
251 1 11.8363441141 27.1056239135 1.8075000000
252 1 11.3979609249 28.8690398580 3.6150000000
253 1 14.9050262388 22.2493495495 -5.4225000000
254 1 14.4666430496 24.0142400993 -3.6150000000
255 1 14.0282598605 25.7785484963 -1.8075000000
256 1 13.5898766713 27.5420564763 0.0000000000
257 1 13.1514934822 29.3046468685 1.8075000000
258 1 16.2201756069 24.4539152740 -5.4225000000
259 1 15.7817924178 26.2169488365 -3.6150000000
260 1 15.3434092286 27.9794207838 -1.8075000000
261 1 17.5353249751 26.6559224742 -5.4225000000
262 1 17.0969417859 28.4174735339 -3.6150000000
263 1 18.8504743432 28.8560346072 -5.4225000000
264 2 -0.0000001993 -7.0141421287 -5.4225000000
265 2 0.4383829899 -5.2504802463 -3.6150000000
266 2 1.3151493681 -1.7280431208 -3.6150000000
267 2 0.8767661790 -3.4888689960 -1.8075000000
268 2 0.0000000000 0.4383888550 0.0000000000
269 1 2.6302989356 -3.4551528379 -5.4225000000
270 1 2.1919157464 -1.7121681691 -3.6150000000
271 1 1.7535325573 0.0324931110 -1.8075000000
272 2 0.4383831891 2.2001014948 -1.8075000000
273 2 1.3151495674 5.7255803623 1.8075000000
274 2 0.8767663783 3.9622427566 3.6150000000
275 2 0.0000001993 7.8909198379 5.4225000000
276 1 3.9454483037 -1.2424583369 -5.4225000000
277 1 3.5070651146 0.5024558174 -3.6150000000
278 1 3.0686819254 2.2488936167 -1.8075000000
279 1 2.6302987363 3.9964400979 0.0000000000
280 1 2.1919155472 5.7447683166 1.8075000000
281 1 1.7535323580 7.4935837909 3.6150000000
282 2 0.4383833884 9.6561601567 7.2300000000
283 2 1.3151497667 13.2124314524 7.2300000000
284 1 5.2605976719 0.9709185254 -5.4225000000
285 1 4.8222144827 2.7185953921 -3.6150000000
286 1 4.3838312936 4.4680704177 -1.8075000000
287 1 3.9454481044 6.2193772259 0.0000000000
288 1 3.5070649153 7.9728547659 1.8075000000
289 1 3.0686817262 9.7294523166 3.6150000000
290 1 2.6302985370 11.4916896234 5.4225000000
291 1 2.1919153479 13.2673897249 7.2300000000
292 1 6.5757470400 3.1865302974 -5.4225000000
293 1 6.1373638509 4.9379154552 -3.6150000000
294 1 5.6989806617 6.6919037656 -1.8075000000
295 1 5.2605974726 8.4492174292 0.0000000000
296 1 4.8222142835 10.2113656324 1.8075000000
297 1 4.3838310943 11.9814562705 3.6150000000
298 1 3.9454479052 13.7656946391 5.4225000000
299 1 3.5070647160 15.5727940092 7.2300000000
300 1 7.8908964082 5.4052223440 -5.4225000000
301 1 7.4525132190 7.1612248531 -3.6150000000
302 1 7.0141300299 8.9209884588 -1.8075000000
303 1 6.5757468407 10.6858438605 0.0000000000
304 1 6.1373636516 12.4578866761 1.8075000000
305 1 5.6989804625 14.2397576199 3.6150000000
306 1 5.2605972733 16.0325247254 5.4225000000
307 1 4.8222140842 17.8311707619 7.2300000000
308 1 9.2060457763 7.6268754847 -5.4225000000
309 1 8.7676625872 9.3878015442 -3.6150000000
310 1 8.3292793980 11.1532715988 -1.8075000000
311 1 7.8908962089 12.9243468381 0.0000000000
312 1 7.4525130197 14.7017965532 1.8075000000
313 1 7.0141298306 16.4850262974 3.6150000000
314 1 6.5757466415 18.2710503576 5.4225000000
315 1 6.1373634523 20.0554184774 7.2300000000
316 1 10.5211951445 9.8501084791 -5.4225000000
317 1 10.0828119553 11.6150660503 -3.6150000000
318 1 9.6444287662 13.3842159832 -1.8075000000
319 1 9.2060455770 15.1575926132 0.0000000000
320 1 8.7676623879 16.9344088427 1.8075000000
321 1 8.3292791988 18.7128596253 3.6150000000
322 1 7.8908960096 20.4906166514 5.4225000000
323 1 7.4525128205 22.2657936193 7.2300000000
324 1 11.8363445126 12.0726083659 -5.4225000000
325 1 11.3979613235 13.8397165652 -3.6150000000
326 1 10.9595781343 15.6097559991 -1.8075000000
327 1 10.5211949452 17.3820511713 0.0000000000
328 1 10.0828117560 19.1554517834 1.8075000000
329 1 9.6444285669 20.9285888989 3.6150000000
330 1 9.2060453778 22.7002818742 5.4225000000
331 1 8.7676621886 24.4698207176 7.2300000000
332 1 13.1514938808 14.2922036573 -5.4225000000
333 1 12.7131106916 16.0595757988 -3.6150000000
334 1 12.2747275025 17.8285462358 -1.8075000000
335 1 11.8363443133 19.5983432850 0.0000000000
336 1 11.3979611242 21.3680925732 1.8075000000
337 1 10.9595779351 23.1370106571 3.6150000000
338 1 10.5211947459 24.9045526608 5.4225000000
339 1 10.0828115568 26.6704523009 7.2300000000
340 1 14.4666432489 16.5077536950 -5.4225000000
341 1 14.0282600598 18.2741957008 -3.6150000000
342 1 13.5898768706 20.0412992499 -1.8075000000
343 1 13.1514936815 21.8084706982 0.0000000000
344 1 12.7131104923 23.5751646364 1.8075000000
345 1 12.2747273032 25.3409659185 3.6150000000
346 1 11.8363441141 27.1056239135 5.4225000000
347 1 11.3979609249 28.8690398580 7.2300000000
348 1 15.7817926171 18.7191740613 -5.4225000000
349 1 15.3434094279 20.4841959707 -3.6150000000
350 1 14.9050262388 22.2493495495 -1.8075000000
351 1 14.4666430496 24.0142400993 0.0000000000
352 1 14.0282598605 25.7785484963 1.8075000000
353 1 13.5898766713 27.5420564763 3.6150000000
354 1 13.1514934822 29.3046468685 5.4225000000
355 1 17.0969419852 20.9269658668 -5.4225000000
356 1 16.6585587961 22.6905047302 -3.6150000000
357 1 16.2201756069 24.4539152740 -1.8075000000
358 1 15.7817924178 26.2169488365 0.0000000000
359 1 15.3434092286 27.9794207838 1.8075000000
360 1 18.4120913534 23.1317962586 -5.4225000000
361 1 17.9737081642 24.8939785120 -3.6150000000
362 1 17.5353249751 26.6559224742 -1.8075000000
363 1 17.0969417859 28.4174735339 0.0000000000
364 1 19.7272407215 25.3342872607 -5.4225000000
365 1 19.2888575324 27.0952970079 -3.6150000000
366 1 18.8504743432 28.8560346072 -1.8075000000
367 1 21.0423900897 27.5349492526 -5.4225000000
368 1 20.6040069005 29.2949699822 -3.6150000000
369 2 1.3151491689 -9.1586165547 -5.4225000000
370 2 0.8767659797 -10.9109356082 -3.6150000000
371 2 -0.0000001993 -7.0141421287 -1.8075000000
372 1 2.1919159457 -9.1390597213 -5.4225000000
373 1 1.7535327566 -7.4079239445 -3.6150000000
374 2 0.4383829899 -5.2504802463 0.0000000000
375 2 1.3151493681 -1.7280431208 0.0000000000
376 2 0.8767661790 -3.4888689960 1.8075000000
377 2 0.0000000000 0.4383888550 3.6150000000
378 1 3.5070653139 -6.9315374542 -5.4225000000
379 1 3.0686821247 -5.1954455100 -3.6150000000
380 1 2.6302989356 -3.4551528379 -1.8075000000
381 1 2.1919157464 -1.7121681691 0.0000000000
382 1 1.7535325573 0.0324931110 1.8075000000
383 2 0.4383831891 2.2001014948 1.8075000000
384 2 1.3151495674 5.7255803623 5.4225000000
385 2 0.8767663783 3.9622427566 7.2300000000
386 1 4.8222146820 -4.7252826426 -5.4225000000
387 1 4.3838314929 -2.9852908214 -3.6150000000
388 1 3.9454483037 -1.2424583369 -1.8075000000
389 1 3.5070651146 0.5024558174 0.0000000000
390 1 3.0686819254 2.2488936167 1.8075000000
391 1 2.6302987363 3.9964400979 3.6150000000
392 1 2.1919155472 5.7447683166 5.4225000000
393 1 1.7535323580 7.4935837909 7.2300000000
394 1 6.1373640502 -2.5182276078 -5.4225000000
395 1 5.6989808610 -0.7747963374 -3.6150000000
396 1 5.2605976719 0.9709185254 -1.8075000000
397 1 4.8222144827 2.7185953921 0.0000000000
398 1 4.3838312936 4.4680704177 1.8075000000
399 1 3.9454481044 6.2193772259 3.6150000000
400 1 3.5070649153 7.9728547659 5.4225000000
401 1 3.0686817262 9.7294523166 7.2300000000
402 1 7.4525134183 -0.3093950670 -5.4225000000
403 1 7.0141302292 1.4374451278 -3.6150000000
404 1 6.5757470400 3.1865302974 -1.8075000000
405 1 6.1373638509 4.9379154552 0.0000000000
406 1 5.6989806617 6.6919037656 1.8075000000
407 1 5.2605974726 8.4492174292 3.6150000000
408 1 4.8222142835 10.2113656324 5.4225000000
409 1 4.3838310943 11.9814562705 7.2300000000
410 1 8.7676627865 1.9017525702 -5.4225000000
411 1 8.3292795973 3.6522045694 -3.6150000000
412 1 7.8908964082 5.4052223440 -1.8075000000
413 1 7.4525132190 7.1612248531 0.0000000000
414 1 7.0141300299 8.9209884588 1.8075000000
415 1 6.5757468407 10.6858438605 3.6150000000
416 1 6.1373636516 12.4578866761 5.4225000000
417 1 5.6989804625 14.2397576199 7.2300000000
418 1 10.0828121546 4.1153495966 -5.4225000000
419 1 9.6444289655 5.8696020477 -3.6150000000
420 1 9.2060457763 7.6268754847 -1.8075000000
421 1 8.7676625872 9.3878015442 0.0000000000
422 1 8.3292793980 11.1532715988 1.8075000000
423 1 7.8908962089 12.9243468381 3.6150000000
424 1 7.4525130197 14.7017965532 5.4225000000
425 1 7.0141298306 16.4850262974 7.2300000000
426 1 11.3979615227 6.3309982949 -5.4225000000
427 1 10.9595783336 8.0889195050 -3.6150000000
428 1 10.5211951445 9.8501084791 -1.8075000000
429 1 10.0828119553 11.6150660503 0.0000000000
430 1 9.6444287662 13.3842159832 1.8075000000
431 1 9.2060455770 15.1575926132 3.6150000000
432 1 8.7676623879 16.9344088427 5.4225000000
433 1 8.3292791988 18.7128596253 7.2300000000
434 1 12.7131108909 8.5477093808 -5.4225000000
435 1 12.2747277018 10.3086391117 -3.6150000000
436 1 11.8363445126 12.0726083659 -1.8075000000
437 1 11.3979613235 13.8397165652 0.0000000000
438 1 10.9595781343 15.6097559991 1.8075000000
439 1 10.5211949452 17.3820511713 3.6150000000
440 1 10.0828117560 19.1554517834 5.4225000000
441 1 9.6444285669 20.9285888989 7.2300000000
442 1 14.0282602590 10.7641089956 -5.4225000000
443 1 13.5898770699 12.5269608907 -3.6150000000
444 1 13.1514938808 14.2922036573 -1.8075000000
445 1 12.7131106916 16.0595757988 0.0000000000
446 1 12.2747275025 17.8285462358 1.8075000000
447 1 11.8363443133 19.5983432850 3.6150000000
448 1 11.3979611242 21.3680925732 5.4225000000
449 1 10.9595779351 23.1370106571 7.2300000000
450 1 15.3434096272 12.9788861695 -5.4225000000
451 1 14.9050264381 14.7425139622 -3.6150000000
452 1 14.4666432489 16.5077536950 -1.8075000000
453 1 14.0282600598 18.2741957008 0.0000000000
454 1 13.5898768706 20.0412992499 1.8075000000
455 1 13.1514936815 21.8084706982 3.6150000000
456 1 12.7131104923 23.5751646364 5.4225000000
457 1 12.2747273032 25.3409659185 7.2300000000
458 1 16.6585589953 15.1911842414 -5.4225000000
459 1 16.2201758062 16.9547059434 -3.6150000000
460 1 15.7817926171 18.7191740613 -1.8075000000
461 1 15.3434094279 20.4841959707 0.0000000000
462 1 14.9050262388 22.2493495495 1.8075000000
463 1 14.4666430496 24.0142400993 3.6150000000
464 1 14.0282598605 25.7785484963 5.4225000000
465 1 13.5898766713 27.5420564763 7.2300000000
466 1 17.9737083635 17.4006983813 -5.4225000000
467 1 17.5353251743 19.1635933892 -3.6150000000
468 1 17.0969419852 20.9269658668 -1.8075000000
469 1 16.6585587961 22.6905047302 0.0000000000
470 1 16.2201756069 24.4539152740 1.8075000000
471 1 15.7817924178 26.2169488365 3.6150000000
472 1 15.3434092286 27.9794207838 5.4225000000
473 1 19.2888577316 19.6075321505 -5.4225000000
474 1 18.8504745425 21.3695722404 -3.6150000000
475 1 18.4120913534 23.1317962586 -1.8075000000
476 1 17.9737081642 24.8939785120 0.0000000000
477 1 17.5353249751 26.6559224742 1.8075000000
478 1 17.0969417859 28.4174735339 3.6150000000
479 1 20.6040070998 21.8119964391 -5.4225000000
480 1 20.1656239106 23.5731346018 -3.6150000000
481 1 19.7272407215 25.3342872607 -1.8075000000
482 1 19.2888575324 27.0952970079 0.0000000000
483 1 18.8504743432 28.8560346072 1.8075000000
484 1 21.9191564679 24.0144617296 -5.4225000000
485 1 21.4807732788 25.7747437537 -3.6150000000
486 1 21.0423900897 27.5349492526 -1.8075000000
487 1 20.6040069005 29.2949699822 0.0000000000
488 1 23.2343058361 26.2152800819 -5.4225000000
489 1 22.7959226469 27.9747902011 -3.6150000000
490 1 24.5494552042 28.4147549717 -5.4225000000
491 1 0.4383835877 -16.6801653633 -5.4225000000
492 1 0.0000003986 -14.9050642168 -3.6150000000
493 1 1.7535329558 -14.6470573339 -5.4225000000
494 2 0.4383827906 -12.6490984541 -5.4225000000
495 2 1.3151491689 -9.1586165547 -1.8075000000
496 2 0.8767659797 -10.9109356082 0.0000000000
497 2 -0.0000001993 -7.0141421287 1.8075000000
498 1 3.0686823240 -12.5528191256 -5.4225000000
499 1 2.6302991349 -10.8568457034 -3.6150000000
500 1 2.1919159457 -9.1390597213 -1.8075000000
501 1 1.7535327566 -7.4079239445 0.0000000000
502 2 0.4383829899 -5.2504802463 3.6150000000
503 2 1.3151493681 -1.7280431208 3.6150000000
504 2 0.8767661790 -3.4888689960 5.4225000000
505 2 0.0000000000 0.4383888550 7.2300000000
506 1 4.3838316921 -10.3817927856 -5.4225000000
507 1 3.9454485030 -8.6612156050 -3.6150000000
508 1 3.5070653139 -6.9315374542 -1.8075000000
509 1 3.0686821247 -5.1954455100 0.0000000000
510 1 2.6302989356 -3.4551528379 1.8075000000
511 1 2.1919157464 -1.7121681691 3.6150000000
512 1 1.7535325573 0.0324931110 5.4225000000
513 2 0.4383831891 2.2001014948 5.4225000000
514 1 5.6989810603 -8.1926267666 -5.4225000000
515 1 5.2605978711 -6.4614400367 -3.6150000000
516 1 4.8222146820 -4.7252826426 -1.8075000000
517 1 4.3838314929 -2.9852908214 0.0000000000
518 1 3.9454483037 -1.2424583369 1.8075000000
519 1 3.5070651146 0.5024558174 3.6150000000
520 1 3.0686819254 2.2488936167 5.4225000000
521 1 2.6302987363 3.9964400979 7.2300000000
522 1 7.0141304284 -5.9963458988 -5.4225000000
523 1 6.5757472393 -4.2589210200 -3.6150000000
524 1 6.1373640502 -2.5182276078 -1.8075000000
525 1 5.6989808610 -0.7747963374 0.0000000000
526 1 5.2605976719 0.9709185254 1.8075000000
527 1 4.8222144827 2.7185953921 3.6150000000
528 1 4.3838312936 4.4680704177 5.4225000000
529 1 3.9454481044 6.2193772259 7.2300000000
530 1 8.3292797966 -3.7958355499 -5.4225000000
531 1 7.8908966074 -2.0538869787 -3.6150000000
532 1 7.4525134183 -0.3093950670 -1.8075000000
533 1 7.0141302292 1.4374451278 0.0000000000
534 1 6.5757470400 3.1865302974 1.8075000000
535 1 6.1373638509 4.9379154552 3.6150000000
536 1 5.6989806617 6.6919037656 5.4225000000
537 1 5.2605974726 8.4492174292 7.2300000000
538 1 9.6444291647 -1.5920866805 -5.4225000000
539 1 9.2060459756 0.1536736517 -3.6150000000
540 1 8.7676627865 1.9017525702 -1.8075000000
541 1 8.3292795973 3.6522045694 0.0000000000
542 1 7.8908964082 5.4052223440 1.8075000000
543 1 7.4525132190 7.1612248531 3.6150000000
544 1 7.0141300299 8.9209884588 5.4225000000
545 1 6.5757468407 10.6858438605 7.2300000000
546 1 10.9595785329 0.6144350425 -5.4225000000
547 1 10.5211953437 2.3637095378 -3.6150000000
548 1 10.0828121546 4.1153495966 -1.8075000000
549 1 9.6444289655 5.8696020477 0.0000000000
550 1 9.2060457763 7.6268754847 1.8075000000
551 1 8.7676625872 9.3878015442 3.6150000000
552 1 8.3292793980 11.1532715988 5.4225000000
553 1 7.8908962089 12.9243468381 7.2300000000
554 1 12.2747279010 2.8233179393 -5.4225000000
555 1 11.8363447119 4.5759090331 -3.6150000000
556 1 11.3979615227 6.3309982949 -1.8075000000
557 1 10.9595783336 8.0889195050 0.0000000000
558 1 10.5211951445 9.8501084791 1.8075000000
559 1 10.0828119553 11.6150660503 3.6150000000
560 1 9.6444287662 13.3842159832 5.4225000000
561 1 9.2060455770 15.1575926132 7.2300000000
562 1 13.5898772692 5.0339859965 -5.4225000000
563 1 13.1514940800 6.7895807573 -3.6150000000
564 1 12.7131108909 8.5477093808 -1.8075000000
565 1 12.2747277018 10.3086391117 0.0000000000
566 1 11.8363445126 12.0726083659 1.8075000000
567 1 11.3979613235 13.8397165652 3.6150000000
568 1 10.9595781343 15.6097559991 5.4225000000
569 1 10.5211949452 17.3820511713 7.2300000000
570 1 14.9050266373 7.2456342457 -5.4225000000
571 1 14.4666434482 9.0036950301 -3.6150000000
572 1 14.0282602590 10.7641089956 -1.8075000000
573 1 13.5898770699 12.5269608907 0.0000000000
574 1 13.1514938808 14.2922036573 1.8075000000
575 1 12.7131106916 16.0595757988 3.6150000000
576 1 12.2747275025 17.8285462358 5.4225000000
577 1 11.8363443133 19.5983432850 7.2300000000
578 1 16.2201760055 9.4573179677 -5.4225000000
579 1 15.7817928163 11.2171194910 -3.6150000000
580 1 15.3434096272 12.9788861695 -1.8075000000
581 1 14.9050264381 14.7425139622 0.0000000000
582 1 14.4666432489 16.5077536950 1.8075000000
583 1 14.0282600598 18.2741957008 3.6150000000
584 1 13.5898768706 20.0412992499 5.4225000000
585 1 13.1514936815 21.8084706982 7.2300000000
586 1 17.5353253736 11.6681470470 -5.4225000000
587 1 17.0969421845 13.4289255212 -3.6150000000
588 1 16.6585589953 15.1911842414 -1.8075000000
589 1 16.2201758062 16.9547059434 0.0000000000
590 1 15.7817926171 18.7191740613 1.8075000000
591 1 15.3434094279 20.4841959707 3.6150000000
592 1 14.9050262388 22.2493495495 5.4225000000
593 1 14.4666430496 24.0142400993 7.2300000000
594 1 18.8504747418 13.8774677805 -5.4225000000
595 1 18.4120915526 15.6385742685 -3.6150000000
596 1 17.9737083635 17.4006983813 -1.8075000000
597 1 17.5353251743 19.1635933892 0.0000000000
598 1 17.0969419852 20.9269658668 1.8075000000
599 1 16.6585587961 22.6905047302 3.6150000000
600 1 16.2201756069 24.4539152740 5.4225000000
601 1 15.7817924178 26.2169488365 7.2300000000
602 1 20.1656241099 16.0849356244 -5.4225000000
603 1 19.7272409208 17.8459117826 -3.6150000000
604 1 19.2888577316 19.6075321505 -1.8075000000
605 1 18.8504745425 21.3695722404 0.0000000000
606 1 18.4120913534 23.1317962586 1.8075000000
607 1 17.9737081642 24.8939785120 3.6150000000
608 1 17.5353249751 26.6559224742 5.4225000000
609 1 17.0969417859 28.4174735339 7.2300000000
610 1 21.4807734781 18.2904757579 -5.4225000000
611 1 21.0423902889 20.0510492284 -3.6150000000
612 1 20.6040070998 21.8119964391 -1.8075000000
613 1 20.1656239106 23.5731346018 0.0000000000
614 1 19.7272407215 25.3342872607 1.8075000000
615 1 19.2888575324 27.0952970079 3.6150000000
616 1 18.8504743432 28.8560346072 5.4225000000
617 1 22.7959228462 20.4941912396 -5.4225000000
618 1 22.3575396571 22.2542307806 -3.6150000000
619 1 21.9191564679 24.0144617296 -1.8075000000
620 1 21.4807732788 25.7747437537 0.0000000000
621 1 21.0423900897 27.5349492526 1.8075000000
622 1 20.6040069005 29.2949699822 3.6150000000
623 1 24.1110722144 22.6962744001 -5.4225000000
624 1 23.6726890252 24.4557399665 -3.6150000000
625 1 23.2343058361 26.2152800819 -1.8075000000
626 1 22.7959226469 27.9747902011 0.0000000000
627 1 25.4262215825 24.8969451355 -5.4225000000
628 1 24.9878383934 26.6558487159 -3.6150000000
629 1 24.5494552042 28.4147549717 -1.8075000000
630 1 26.7413709507 27.0964163109 -5.4225000000
631 1 26.3029877615 28.8547959678 -3.6150000000
632 1 28.0565203188 29.2948781423 -5.4225000000
633 1 0.0000005978 -22.3575951379 -5.4225000000
634 1 1.3151499660 -20.1902620699 -5.4225000000
635 1 0.8767667768 -18.4364013584 -3.6150000000
636 1 0.4383835877 -16.6801653633 -1.8075000000
637 1 0.0000003986 -14.9050642168 0.0000000000
638 1 2.6302993341 -18.0457473825 -5.4225000000
639 1 2.1919161450 -16.3217715506 -3.6150000000